     Message from routine get_command_line:
     unexpected argument # 2     :-input

     Program PWSCF v.6.4.1 starts on 19Feb2020 at 17:18:31 

     This program is part of the open-source Quantum ESPRESSO suite
     for quantum simulation of materials; please cite
         "P. Giannozzi et al., J. Phys.:Condens. Matter 21 395502 (2009);
         "P. Giannozzi et al., J. Phys.:Condens. Matter 29 465901 (2017);
          URL http://www.quantum-espresso.org", 
     in publications or presentations arising from this work. More details at
     http://www.quantum-espresso.org/quote

     Parallel version (MPI), running on     1 processors

     MPI processes distributed on     1 nodes
     Waiting for input...
     Reading input from standard input

     Current dimensions of program PWSCF are:
     Max number of different atomic species (ntypx) = 10
     Max number of k-points (npk) =  40000
     Max angular momentum in pseudopotentials (lmaxx) =  3
               file Co.pz-nd-rrkjus.UPF: wavefunction(s)  4S 3D renormalized

     Subspace diagonalization in iterative solution of the eigenvalue problem:
     a serial algorithm will be used


     G-vector sticks info
     --------------------
     sticks:   dense  smooth     PW     G-vecs:    dense   smooth      PW
     Sum         349     163     61                 8653     2875     591



     bravais-lattice index     =            4
     lattice parameter (alat)  =       4.5000  a.u.
     unit-cell volume          =     129.4232 (a.u.)^3
     number of atoms/cell      =            2
     number of atomic types    =            1
     number of electrons       =        18.00
     number of Kohn-Sham states=           13
     kinetic-energy cutoff     =      30.0000  Ry
     charge density cutoff     =     250.0000  Ry
     convergence threshold     =      1.0E-08
     mixing beta               =       0.7000
     number of iterations used =            8  plain     mixing
     Exchange-correlation      =  SLA  PZ   NOGX NOGC ( 1  1  0  0 0 0)

     celldm(1)=   4.500000  celldm(2)=   0.000000  celldm(3)=   1.640000
     celldm(4)=   0.000000  celldm(5)=   0.000000  celldm(6)=   0.000000

     crystal axes: (cart. coord. in units of alat)
               a(1) = (   1.000000   0.000000   0.000000 )  
               a(2) = (  -0.500000   0.866025   0.000000 )  
               a(3) = (   0.000000   0.000000   1.640000 )  

     reciprocal axes: (cart. coord. in units 2 pi/alat)
               b(1) = (  1.000000  0.577350 -0.000000 )  
               b(2) = (  0.000000  1.154701  0.000000 )  
               b(3) = (  0.000000 -0.000000  0.609756 )  


     PseudoPot. # 1 for Co read from file:
     ./Co.pz-nd-rrkjus.UPF
     MD5 check sum: c80159f6ca3a93d3df3cfc6468bb3c3d
     Pseudo is Ultrasoft + core correction, Zval =  9.0
     Generated by new atomic code, or converted to UPF format
     Using radial grid of  961 points,  6 beta functions with: 
                l(1) =   0
                l(2) =   0
                l(3) =   1
                l(4) =   1
                l(5) =   2
                l(6) =   2
     Q(r) pseudized with 0 coefficients 


     atomic species   valence    mass     pseudopotential
        Co             9.00    58.93300     Co( 1.00)

     Starting magnetic structure 
     atomic species   magnetization
        Co           0.700

     24 Sym. Ops., with inversion, found (12 have fractional translation)



   Cartesian axes

     site n.     atom                  positions (alat units)
         1           Co  tau(   1) = (  -0.0000000   0.5773503   0.4100000  )
         2           Co  tau(   2) = (   0.5000000   0.2886751   1.2300000  )

     number of k points=    76  Marzari-Vanderbilt smearing, width (Ry)=  0.0300
                       cart. coord. in units 2pi/alat
        k(    1) = (   0.0000000   0.0000000   0.0000000), wk =   0.0011574
        k(    2) = (   0.0000000   0.0000000   0.1016260), wk =   0.0023148
        k(    3) = (   0.0000000   0.0000000   0.2032520), wk =   0.0023148
        k(    4) = (   0.0000000   0.0000000  -0.3048780), wk =   0.0011574
        k(    5) = (   0.0000000   0.0962250   0.0000000), wk =   0.0069444
        k(    6) = (   0.0000000   0.0962250   0.1016260), wk =   0.0138889
        k(    7) = (   0.0000000   0.0962250   0.2032520), wk =   0.0138889
        k(    8) = (   0.0000000   0.0962250  -0.3048780), wk =   0.0069444
        k(    9) = (   0.0000000   0.1924501   0.0000000), wk =   0.0069444
        k(   10) = (   0.0000000   0.1924501   0.1016260), wk =   0.0138889
        k(   11) = (   0.0000000   0.1924501   0.2032520), wk =   0.0138889
        k(   12) = (   0.0000000   0.1924501  -0.3048780), wk =   0.0069444
        k(   13) = (   0.0000000   0.2886751   0.0000000), wk =   0.0069444
        k(   14) = (   0.0000000   0.2886751   0.1016260), wk =   0.0138889
        k(   15) = (   0.0000000   0.2886751   0.2032520), wk =   0.0138889
        k(   16) = (   0.0000000   0.2886751  -0.3048780), wk =   0.0069444
        k(   17) = (   0.0000000   0.3849002   0.0000000), wk =   0.0069444
        k(   18) = (   0.0000000   0.3849002   0.1016260), wk =   0.0138889
        k(   19) = (   0.0000000   0.3849002   0.2032520), wk =   0.0138889
        k(   20) = (   0.0000000   0.3849002  -0.3048780), wk =   0.0069444
        k(   21) = (   0.0000000   0.4811252   0.0000000), wk =   0.0069444
        k(   22) = (   0.0000000   0.4811252   0.1016260), wk =   0.0138889
        k(   23) = (   0.0000000   0.4811252   0.2032520), wk =   0.0138889
        k(   24) = (   0.0000000   0.4811252  -0.3048780), wk =   0.0069444
        k(   25) = (   0.0000000  -0.5773503   0.0000000), wk =   0.0034722
        k(   26) = (   0.0000000  -0.5773503   0.1016260), wk =   0.0069444
        k(   27) = (   0.0000000  -0.5773503   0.2032520), wk =   0.0069444
        k(   28) = (   0.0000000  -0.5773503  -0.3048780), wk =   0.0034722
        k(   29) = (   0.0833333   0.1443376   0.0000000), wk =   0.0069444
        k(   30) = (   0.0833333   0.1443376   0.1016260), wk =   0.0138889
        k(   31) = (   0.0833333   0.1443376   0.2032520), wk =   0.0138889
        k(   32) = (   0.0833333   0.1443376  -0.3048780), wk =   0.0069444
        k(   33) = (   0.0833333   0.2405626   0.0000000), wk =   0.0138889
        k(   34) = (   0.0833333   0.2405626   0.1016260), wk =   0.0277778
        k(   35) = (   0.0833333   0.2405626   0.2032520), wk =   0.0277778
        k(   36) = (   0.0833333   0.2405626  -0.3048780), wk =   0.0138889
        k(   37) = (   0.0833333   0.3367877   0.0000000), wk =   0.0138889
        k(   38) = (   0.0833333   0.3367877   0.1016260), wk =   0.0277778
        k(   39) = (   0.0833333   0.3367877   0.2032520), wk =   0.0277778
        k(   40) = (   0.0833333   0.3367877  -0.3048780), wk =   0.0138889
        k(   41) = (   0.0833333   0.4330127   0.0000000), wk =   0.0138889
        k(   42) = (   0.0833333   0.4330127   0.1016260), wk =   0.0277778
        k(   43) = (   0.0833333   0.4330127   0.2032520), wk =   0.0277778
        k(   44) = (   0.0833333   0.4330127  -0.3048780), wk =   0.0138889
        k(   45) = (   0.0833333   0.5292377   0.0000000), wk =   0.0138889
        k(   46) = (   0.0833333   0.5292377   0.1016260), wk =   0.0277778
        k(   47) = (   0.0833333   0.5292377   0.2032520), wk =   0.0277778
        k(   48) = (   0.0833333   0.5292377  -0.3048780), wk =   0.0138889
        k(   49) = (   0.1666667   0.2886751   0.0000000), wk =   0.0069444
        k(   50) = (   0.1666667   0.2886751   0.1016260), wk =   0.0138889
        k(   51) = (   0.1666667   0.2886751   0.2032520), wk =   0.0138889
        k(   52) = (   0.1666667   0.2886751  -0.3048780), wk =   0.0069444
        k(   53) = (   0.1666667   0.3849002   0.0000000), wk =   0.0138889
        k(   54) = (   0.1666667   0.3849002   0.1016260), wk =   0.0277778
        k(   55) = (   0.1666667   0.3849002   0.2032520), wk =   0.0277778
        k(   56) = (   0.1666667   0.3849002  -0.3048780), wk =   0.0138889
        k(   57) = (   0.1666667   0.4811252   0.0000000), wk =   0.0138889
        k(   58) = (   0.1666667   0.4811252   0.1016260), wk =   0.0277778
        k(   59) = (   0.1666667   0.4811252   0.2032520), wk =   0.0277778
        k(   60) = (   0.1666667   0.4811252  -0.3048780), wk =   0.0138889
        k(   61) = (   0.1666667   0.5773503   0.0000000), wk =   0.0069444
        k(   62) = (   0.1666667   0.5773503   0.1016260), wk =   0.0138889
        k(   63) = (   0.1666667   0.5773503   0.2032520), wk =   0.0138889
        k(   64) = (   0.1666667   0.5773503  -0.3048780), wk =   0.0069444
        k(   65) = (   0.2500000   0.4330127   0.0000000), wk =   0.0069444
        k(   66) = (   0.2500000   0.4330127   0.1016260), wk =   0.0138889
        k(   67) = (   0.2500000   0.4330127   0.2032520), wk =   0.0138889
        k(   68) = (   0.2500000   0.4330127  -0.3048780), wk =   0.0069444
        k(   69) = (   0.2500000   0.5292377   0.0000000), wk =   0.0138889
        k(   70) = (   0.2500000   0.5292377   0.1016260), wk =   0.0277778
        k(   71) = (   0.2500000   0.5292377   0.2032520), wk =   0.0277778
        k(   72) = (   0.2500000   0.5292377  -0.3048780), wk =   0.0138889
        k(   73) = (   0.3333333   0.5773503   0.0000000), wk =   0.0023148
        k(   74) = (   0.3333333   0.5773503   0.1016260), wk =   0.0046296
        k(   75) = (   0.3333333   0.5773503   0.2032520), wk =   0.0046296
        k(   76) = (   0.3333333   0.5773503  -0.3048780), wk =   0.0023148

     Dense  grid:     8653 G-vectors     FFT dimensions: (  24,  24,  40)

     Smooth grid:     2875 G-vectors     FFT dimensions: (  15,  15,  30)

     Estimated max dynamical RAM per process >      47.40 MB
     Generating pointlists ...
     new r_m :   0.4125 (alat units)  1.8563 (a.u.) for type    1

     Check: negative core charge=   -0.000016

     Initial potential from superposition of free atoms

     starting charge   17.99923, renormalised to   18.00000
     Starting wfcs are   12 randomized atomic wfcs +    1 random wfcs

     total cpu time spent up to now is        2.4 secs

     Self-consistent Calculation

     iteration #  1     ecut=    30.00 Ry     beta= 0.70
     Davidson diagonalization with overlap
     ethr =  1.00E-02,  avg # of iterations =  3.4

     total cpu time spent up to now is        7.9 secs

     total energy              =    -147.94874256 Ry
     Harris-Foulkes estimate   =    -148.11682381 Ry
     estimated scf accuracy    <       1.14543438 Ry

     total magnetization       =     4.79 Bohr mag/cell
     absolute magnetization    =     4.80 Bohr mag/cell

     iteration #  2     ecut=    30.00 Ry     beta= 0.70
     Davidson diagonalization with overlap
     ethr =  6.36E-03,  avg # of iterations =  2.3

     total cpu time spent up to now is       12.9 secs

     total energy              =    -148.18091371 Ry
     Harris-Foulkes estimate   =    -148.63730607 Ry
     estimated scf accuracy    <       1.13023632 Ry

     total magnetization       =     3.30 Bohr mag/cell
     absolute magnetization    =     3.43 Bohr mag/cell

     iteration #  3     ecut=    30.00 Ry     beta= 0.70
     Davidson diagonalization with overlap
     ethr =  6.28E-03,  avg # of iterations =  2.0

     total cpu time spent up to now is       16.9 secs

     total energy              =    -148.43207718 Ry
     Harris-Foulkes estimate   =    -148.40270301 Ry
     estimated scf accuracy    <       0.04246137 Ry

     total magnetization       =     3.51 Bohr mag/cell
     absolute magnetization    =     3.69 Bohr mag/cell

     iteration #  4     ecut=    30.00 Ry     beta= 0.70
     Davidson diagonalization with overlap
     ethr =  2.36E-04,  avg # of iterations =  2.0

     total cpu time spent up to now is       21.1 secs

     total energy              =    -148.44408441 Ry
     Harris-Foulkes estimate   =    -148.44402371 Ry
     estimated scf accuracy    <       0.00044447 Ry

     total magnetization       =     3.09 Bohr mag/cell
     absolute magnetization    =     3.33 Bohr mag/cell

     iteration #  5     ecut=    30.00 Ry     beta= 0.70
     Davidson diagonalization with overlap
     ethr =  2.47E-06,  avg # of iterations =  3.2

     total cpu time spent up to now is       26.9 secs

     total energy              =    -148.44447574 Ry
     Harris-Foulkes estimate   =    -148.44442385 Ry
     estimated scf accuracy    <       0.00013014 Ry

     total magnetization       =     3.04 Bohr mag/cell
     absolute magnetization    =     3.27 Bohr mag/cell

     iteration #  6     ecut=    30.00 Ry     beta= 0.70
     Davidson diagonalization with overlap
     ethr =  7.23E-07,  avg # of iterations =  1.9

     total cpu time spent up to now is       31.1 secs

     total energy              =    -148.44454786 Ry
     Harris-Foulkes estimate   =    -148.44453862 Ry
     estimated scf accuracy    <       0.00001540 Ry

     total magnetization       =     3.01 Bohr mag/cell
     absolute magnetization    =     3.22 Bohr mag/cell

     iteration #  7     ecut=    30.00 Ry     beta= 0.70
     Davidson diagonalization with overlap
     ethr =  8.56E-08,  avg # of iterations =  2.5

     total cpu time spent up to now is       36.0 secs

     total energy              =    -148.44456078 Ry
     Harris-Foulkes estimate   =    -148.44456146 Ry
     estimated scf accuracy    <       0.00000182 Ry

     total magnetization       =     2.99 Bohr mag/cell
     absolute magnetization    =     3.19 Bohr mag/cell

     iteration #  8     ecut=    30.00 Ry     beta= 0.70
     Davidson diagonalization with overlap
     ethr =  1.01E-08,  avg # of iterations =  2.0

     total cpu time spent up to now is       40.8 secs

     total energy              =    -148.44456283 Ry
     Harris-Foulkes estimate   =    -148.44456292 Ry
     estimated scf accuracy    <       0.00000020 Ry

     total magnetization       =     2.99 Bohr mag/cell
     absolute magnetization    =     3.18 Bohr mag/cell

     iteration #  9     ecut=    30.00 Ry     beta= 0.70
     Davidson diagonalization with overlap
     ethr =  1.10E-09,  avg # of iterations =  2.2

     total cpu time spent up to now is       45.5 secs

     total energy              =    -148.44456289 Ry
     Harris-Foulkes estimate   =    -148.44456291 Ry
     estimated scf accuracy    <       0.00000004 Ry

     total magnetization       =     2.99 Bohr mag/cell
     absolute magnetization    =     3.18 Bohr mag/cell

     iteration # 10     ecut=    30.00 Ry     beta= 0.70
     Davidson diagonalization with overlap
     ethr =  2.00E-10,  avg # of iterations =  2.0

     Magnetic moment per site:
     atom:    1    charge:    7.5763    magn:    1.5376    constr:    0.0000
     atom:    2    charge:    7.5763    magn:    1.5376    constr:    0.0000

     total cpu time spent up to now is       49.7 secs

     End of self-consistent calculation

     Number of k-points >= 100: set verbosity='high' to print the bands.

     the Fermi energy is    16.1411 ev

!    total energy              =    -148.44456290 Ry
     Harris-Foulkes estimate   =    -148.44456291 Ry
     estimated scf accuracy    <          7.7E-10 Ry

     The total energy is the sum of the following terms:

     one-electron contribution =      13.66851872 Ry
     hartree contribution      =      19.45026223 Ry
     xc contribution           =     -65.03007831 Ry
     ewald contribution        =    -116.54039036 Ry
     smearing contrib. (-TS)   =       0.00712482 Ry

     total magnetization       =     2.98 Bohr mag/cell
     absolute magnetization    =     3.18 Bohr mag/cell

     convergence has been achieved in  10 iterations

     Forces acting on atoms (cartesian axes, Ry/au):

     atom    1 type  1   force =     0.00000000    0.00000000    0.00000000
     atom    2 type  1   force =     0.00000000    0.00000000    0.00000000

     Total force =     0.000000     Total SCF correction =     0.000000


     Computing stress (Cartesian axis) and pressure

          total   stress  (Ry/bohr**3)                   (kbar)     P=  113.19
   0.00088771  -0.00000000   0.00000000        130.59     -0.00      0.00
  -0.00000000   0.00088771   0.00000000         -0.00    130.59      0.00
   0.00000000   0.00000000   0.00053301          0.00      0.00     78.41


     Writing output data file Co.HCP.save/

     init_run     :      2.12s CPU      2.20s WALL (       1 calls)
     electrons    :     46.47s CPU     47.30s WALL (       1 calls)
     forces       :      0.97s CPU      0.98s WALL (       1 calls)
     stress       :      1.62s CPU      1.63s WALL (       1 calls)

     Called by init_run:
     wfcinit      :      1.21s CPU      1.24s WALL (       1 calls)
     potinit      :      0.06s CPU      0.06s WALL (       1 calls)
     hinit0       :      0.73s CPU      0.75s WALL (       1 calls)

     Called by electrons:
     c_bands      :     38.13s CPU     38.86s WALL (      10 calls)
     sum_band     :      6.95s CPU      7.04s WALL (      10 calls)
     v_of_rho     :      0.22s CPU      0.22s WALL (      11 calls)
     newd         :      1.19s CPU      1.22s WALL (      11 calls)
     mix_rho      :      0.07s CPU      0.07s WALL (      10 calls)

     Called by c_bands:
     init_us_2    :      0.86s CPU      0.87s WALL (    3496 calls)
     cegterg      :     36.37s CPU     37.08s WALL (    1520 calls)

     Called by sum_band:
     sum_band:bec :      0.14s CPU      0.14s WALL (    1520 calls)
     addusdens    :      1.85s CPU      1.86s WALL (      10 calls)

     Called by *egterg:
     h_psi        :     21.76s CPU     22.23s WALL (    5245 calls)
     s_psi        :      3.51s CPU      3.59s WALL (    5245 calls)
     g_psi        :      0.09s CPU      0.09s WALL (    3573 calls)
     cdiaghg      :      3.68s CPU      3.74s WALL (    5093 calls)

     Called by h_psi:
     h_psi:pot    :     21.68s CPU     22.15s WALL (    5245 calls)
     h_psi:calbec :      3.93s CPU      4.02s WALL (    5245 calls)
     vloc_psi     :     14.21s CPU     14.51s WALL (    5245 calls)
     add_vuspsi   :      3.50s CPU      3.58s WALL (    5245 calls)

     General routines
     calbec       :      6.07s CPU      6.20s WALL (    7525 calls)
     fft          :      0.17s CPU      0.17s WALL (     125 calls)
     ffts         :      0.02s CPU      0.02s WALL (      42 calls)
     fftw         :     13.32s CPU     13.60s WALL (  124722 calls)
     interpolate  :      0.03s CPU      0.03s WALL (      22 calls)

     Parallel routines

     PWSCF        :     51.52s CPU     52.49s WALL


   This run was terminated on:  17:19:23  19Feb2020            

=------------------------------------------------------------------------------=
   JOB DONE.
=------------------------------------------------------------------------------=
