     Message from routine get_command_line:
     unexpected argument # 2     :-input

     Program PWSCF v.6.4.1 starts on 19Feb2020 at 17:36:41 

     This program is part of the open-source Quantum ESPRESSO suite
     for quantum simulation of materials; please cite
         "P. Giannozzi et al., J. Phys.:Condens. Matter 21 395502 (2009);
         "P. Giannozzi et al., J. Phys.:Condens. Matter 29 465901 (2017);
          URL http://www.quantum-espresso.org", 
     in publications or presentations arising from this work. More details at
     http://www.quantum-espresso.org/quote

     Parallel version (MPI), running on     1 processors

     MPI processes distributed on     1 nodes
     Waiting for input...
     Reading input from standard input

     Current dimensions of program PWSCF are:
     Max number of different atomic species (ntypx) = 10
     Max number of k-points (npk) =  40000
     Max angular momentum in pseudopotentials (lmaxx) =  3
               file Co.pz-nd-rrkjus.UPF: wavefunction(s)  4S 3D renormalized

     Subspace diagonalization in iterative solution of the eigenvalue problem:
     a serial algorithm will be used


     G-vector sticks info
     --------------------
     sticks:   dense  smooth     PW     G-vecs:    dense   smooth      PW
     Sum         361     163     61                 8291     2767     591



     bravais-lattice index     =            4
     lattice parameter (alat)  =       4.5400  a.u.
     unit-cell volume          =     124.8012 (a.u.)^3
     number of atoms/cell      =            2
     number of atomic types    =            1
     number of electrons       =        18.00
     number of Kohn-Sham states=           13
     kinetic-energy cutoff     =      30.0000  Ry
     charge density cutoff     =     250.0000  Ry
     convergence threshold     =      1.0E-08
     mixing beta               =       0.7000
     number of iterations used =            8  plain     mixing
     Exchange-correlation      =  SLA  PZ   NOGX NOGC ( 1  1  0  0 0 0)

     celldm(1)=   4.540000  celldm(2)=   0.000000  celldm(3)=   1.540000
     celldm(4)=   0.000000  celldm(5)=   0.000000  celldm(6)=   0.000000

     crystal axes: (cart. coord. in units of alat)
               a(1) = (   1.000000   0.000000   0.000000 )  
               a(2) = (  -0.500000   0.866025   0.000000 )  
               a(3) = (   0.000000   0.000000   1.540000 )  

     reciprocal axes: (cart. coord. in units 2 pi/alat)
               b(1) = (  1.000000  0.577350 -0.000000 )  
               b(2) = (  0.000000  1.154701  0.000000 )  
               b(3) = (  0.000000 -0.000000  0.649351 )  


     PseudoPot. # 1 for Co read from file:
     ./Co.pz-nd-rrkjus.UPF
     MD5 check sum: c80159f6ca3a93d3df3cfc6468bb3c3d
     Pseudo is Ultrasoft + core correction, Zval =  9.0
     Generated by new atomic code, or converted to UPF format
     Using radial grid of  961 points,  6 beta functions with: 
                l(1) =   0
                l(2) =   0
                l(3) =   1
                l(4) =   1
                l(5) =   2
                l(6) =   2
     Q(r) pseudized with 0 coefficients 


     atomic species   valence    mass     pseudopotential
        Co             9.00    58.93300     Co( 1.00)

     Starting magnetic structure 
     atomic species   magnetization
        Co           0.700

     24 Sym. Ops., with inversion, found (12 have fractional translation)



   Cartesian axes

     site n.     atom                  positions (alat units)
         1           Co  tau(   1) = (  -0.0000000   0.5773503   0.3850000  )
         2           Co  tau(   2) = (   0.5000000   0.2886751   1.1550000  )

     number of k points=    76  Marzari-Vanderbilt smearing, width (Ry)=  0.0300
                       cart. coord. in units 2pi/alat
        k(    1) = (   0.0000000   0.0000000   0.0000000), wk =   0.0011574
        k(    2) = (   0.0000000   0.0000000   0.1082251), wk =   0.0023148
        k(    3) = (   0.0000000   0.0000000   0.2164502), wk =   0.0023148
        k(    4) = (   0.0000000   0.0000000  -0.3246753), wk =   0.0011574
        k(    5) = (   0.0000000   0.0962250   0.0000000), wk =   0.0069444
        k(    6) = (   0.0000000   0.0962250   0.1082251), wk =   0.0138889
        k(    7) = (   0.0000000   0.0962250   0.2164502), wk =   0.0138889
        k(    8) = (   0.0000000   0.0962250  -0.3246753), wk =   0.0069444
        k(    9) = (   0.0000000   0.1924501   0.0000000), wk =   0.0069444
        k(   10) = (   0.0000000   0.1924501   0.1082251), wk =   0.0138889
        k(   11) = (   0.0000000   0.1924501   0.2164502), wk =   0.0138889
        k(   12) = (   0.0000000   0.1924501  -0.3246753), wk =   0.0069444
        k(   13) = (   0.0000000   0.2886751   0.0000000), wk =   0.0069444
        k(   14) = (   0.0000000   0.2886751   0.1082251), wk =   0.0138889
        k(   15) = (   0.0000000   0.2886751   0.2164502), wk =   0.0138889
        k(   16) = (   0.0000000   0.2886751  -0.3246753), wk =   0.0069444
        k(   17) = (   0.0000000   0.3849002   0.0000000), wk =   0.0069444
        k(   18) = (   0.0000000   0.3849002   0.1082251), wk =   0.0138889
        k(   19) = (   0.0000000   0.3849002   0.2164502), wk =   0.0138889
        k(   20) = (   0.0000000   0.3849002  -0.3246753), wk =   0.0069444
        k(   21) = (   0.0000000   0.4811252   0.0000000), wk =   0.0069444
        k(   22) = (   0.0000000   0.4811252   0.1082251), wk =   0.0138889
        k(   23) = (   0.0000000   0.4811252   0.2164502), wk =   0.0138889
        k(   24) = (   0.0000000   0.4811252  -0.3246753), wk =   0.0069444
        k(   25) = (   0.0000000  -0.5773503   0.0000000), wk =   0.0034722
        k(   26) = (   0.0000000  -0.5773503   0.1082251), wk =   0.0069444
        k(   27) = (   0.0000000  -0.5773503   0.2164502), wk =   0.0069444
        k(   28) = (   0.0000000  -0.5773503  -0.3246753), wk =   0.0034722
        k(   29) = (   0.0833333   0.1443376   0.0000000), wk =   0.0069444
        k(   30) = (   0.0833333   0.1443376   0.1082251), wk =   0.0138889
        k(   31) = (   0.0833333   0.1443376   0.2164502), wk =   0.0138889
        k(   32) = (   0.0833333   0.1443376  -0.3246753), wk =   0.0069444
        k(   33) = (   0.0833333   0.2405626   0.0000000), wk =   0.0138889
        k(   34) = (   0.0833333   0.2405626   0.1082251), wk =   0.0277778
        k(   35) = (   0.0833333   0.2405626   0.2164502), wk =   0.0277778
        k(   36) = (   0.0833333   0.2405626  -0.3246753), wk =   0.0138889
        k(   37) = (   0.0833333   0.3367877   0.0000000), wk =   0.0138889
        k(   38) = (   0.0833333   0.3367877   0.1082251), wk =   0.0277778
        k(   39) = (   0.0833333   0.3367877   0.2164502), wk =   0.0277778
        k(   40) = (   0.0833333   0.3367877  -0.3246753), wk =   0.0138889
        k(   41) = (   0.0833333   0.4330127   0.0000000), wk =   0.0138889
        k(   42) = (   0.0833333   0.4330127   0.1082251), wk =   0.0277778
        k(   43) = (   0.0833333   0.4330127   0.2164502), wk =   0.0277778
        k(   44) = (   0.0833333   0.4330127  -0.3246753), wk =   0.0138889
        k(   45) = (   0.0833333   0.5292377   0.0000000), wk =   0.0138889
        k(   46) = (   0.0833333   0.5292377   0.1082251), wk =   0.0277778
        k(   47) = (   0.0833333   0.5292377   0.2164502), wk =   0.0277778
        k(   48) = (   0.0833333   0.5292377  -0.3246753), wk =   0.0138889
        k(   49) = (   0.1666667   0.2886751   0.0000000), wk =   0.0069444
        k(   50) = (   0.1666667   0.2886751   0.1082251), wk =   0.0138889
        k(   51) = (   0.1666667   0.2886751   0.2164502), wk =   0.0138889
        k(   52) = (   0.1666667   0.2886751  -0.3246753), wk =   0.0069444
        k(   53) = (   0.1666667   0.3849002   0.0000000), wk =   0.0138889
        k(   54) = (   0.1666667   0.3849002   0.1082251), wk =   0.0277778
        k(   55) = (   0.1666667   0.3849002   0.2164502), wk =   0.0277778
        k(   56) = (   0.1666667   0.3849002  -0.3246753), wk =   0.0138889
        k(   57) = (   0.1666667   0.4811252   0.0000000), wk =   0.0138889
        k(   58) = (   0.1666667   0.4811252   0.1082251), wk =   0.0277778
        k(   59) = (   0.1666667   0.4811252   0.2164502), wk =   0.0277778
        k(   60) = (   0.1666667   0.4811252  -0.3246753), wk =   0.0138889
        k(   61) = (   0.1666667   0.5773503   0.0000000), wk =   0.0069444
        k(   62) = (   0.1666667   0.5773503   0.1082251), wk =   0.0138889
        k(   63) = (   0.1666667   0.5773503   0.2164502), wk =   0.0138889
        k(   64) = (   0.1666667   0.5773503  -0.3246753), wk =   0.0069444
        k(   65) = (   0.2500000   0.4330127   0.0000000), wk =   0.0069444
        k(   66) = (   0.2500000   0.4330127   0.1082251), wk =   0.0138889
        k(   67) = (   0.2500000   0.4330127   0.2164502), wk =   0.0138889
        k(   68) = (   0.2500000   0.4330127  -0.3246753), wk =   0.0069444
        k(   69) = (   0.2500000   0.5292377   0.0000000), wk =   0.0138889
        k(   70) = (   0.2500000   0.5292377   0.1082251), wk =   0.0277778
        k(   71) = (   0.2500000   0.5292377   0.2164502), wk =   0.0277778
        k(   72) = (   0.2500000   0.5292377  -0.3246753), wk =   0.0138889
        k(   73) = (   0.3333333   0.5773503   0.0000000), wk =   0.0023148
        k(   74) = (   0.3333333   0.5773503   0.1082251), wk =   0.0046296
        k(   75) = (   0.3333333   0.5773503   0.2164502), wk =   0.0046296
        k(   76) = (   0.3333333   0.5773503  -0.3246753), wk =   0.0023148

     Dense  grid:     8291 G-vectors     FFT dimensions: (  24,  24,  36)

     Smooth grid:     2767 G-vectors     FFT dimensions: (  15,  15,  30)

     Estimated max dynamical RAM per process >      45.38 MB
     Generating pointlists ...
     new r_m :   0.3970 (alat units)  1.8024 (a.u.) for type    1

     Check: negative core charge=   -0.000017

     Initial potential from superposition of free atoms

     starting charge   17.99923, renormalised to   18.00000
     Starting wfcs are   12 randomized atomic wfcs +    1 random wfcs

     total cpu time spent up to now is        2.4 secs

     Self-consistent Calculation

     iteration #  1     ecut=    30.00 Ry     beta= 0.70
     Davidson diagonalization with overlap
     ethr =  1.00E-02,  avg # of iterations =  3.4

     total cpu time spent up to now is        7.6 secs

     total energy              =    -147.96975257 Ry
     Harris-Foulkes estimate   =    -148.08383625 Ry
     estimated scf accuracy    <       1.11560712 Ry

     total magnetization       =     4.67 Bohr mag/cell
     absolute magnetization    =     4.68 Bohr mag/cell

     iteration #  2     ecut=    30.00 Ry     beta= 0.70
     Davidson diagonalization with overlap
     ethr =  6.20E-03,  avg # of iterations =  2.3

     total cpu time spent up to now is       12.4 secs

     total energy              =    -148.19751793 Ry
     Harris-Foulkes estimate   =    -148.59226082 Ry
     estimated scf accuracy    <       0.97676779 Ry

     total magnetization       =     3.28 Bohr mag/cell
     absolute magnetization    =     3.41 Bohr mag/cell

     iteration #  3     ecut=    30.00 Ry     beta= 0.70
     Davidson diagonalization with overlap
     ethr =  5.43E-03,  avg # of iterations =  2.0

     total cpu time spent up to now is       16.5 secs

     total energy              =    -148.42417798 Ry
     Harris-Foulkes estimate   =    -148.39736279 Ry
     estimated scf accuracy    <       0.04480449 Ry

     total magnetization       =     3.44 Bohr mag/cell
     absolute magnetization    =     3.61 Bohr mag/cell

     iteration #  4     ecut=    30.00 Ry     beta= 0.70
     Davidson diagonalization with overlap
     ethr =  2.49E-04,  avg # of iterations =  1.8

     total cpu time spent up to now is       20.4 secs

     total energy              =    -148.43576108 Ry
     Harris-Foulkes estimate   =    -148.43541999 Ry
     estimated scf accuracy    <       0.00079107 Ry

     total magnetization       =     2.91 Bohr mag/cell
     absolute magnetization    =     3.15 Bohr mag/cell

     iteration #  5     ecut=    30.00 Ry     beta= 0.70
     Davidson diagonalization with overlap
     ethr =  4.39E-06,  avg # of iterations =  3.0

     total cpu time spent up to now is       25.7 secs

     total energy              =    -148.43578672 Ry
     Harris-Foulkes estimate   =    -148.43646048 Ry
     estimated scf accuracy    <       0.00037619 Ry

     total magnetization       =     2.78 Bohr mag/cell
     absolute magnetization    =     2.99 Bohr mag/cell

     iteration #  6     ecut=    30.00 Ry     beta= 0.70
     Davidson diagonalization with overlap
     ethr =  2.09E-06,  avg # of iterations =  2.1

     total cpu time spent up to now is       30.4 secs

     total energy              =    -148.43693020 Ry
     Harris-Foulkes estimate   =    -148.43700301 Ry
     estimated scf accuracy    <       0.00015195 Ry

     total magnetization       =     2.54 Bohr mag/cell
     absolute magnetization    =     2.72 Bohr mag/cell

     iteration #  7     ecut=    30.00 Ry     beta= 0.70
     Davidson diagonalization with overlap
     ethr =  8.44E-07,  avg # of iterations =  2.0

     total cpu time spent up to now is       34.6 secs

     total energy              =    -148.43697443 Ry
     Harris-Foulkes estimate   =    -148.43697734 Ry
     estimated scf accuracy    <       0.00000177 Ry

     total magnetization       =     2.57 Bohr mag/cell
     absolute magnetization    =     2.74 Bohr mag/cell

     iteration #  8     ecut=    30.00 Ry     beta= 0.70
     Davidson diagonalization with overlap
     ethr =  9.84E-09,  avg # of iterations =  3.0

     total cpu time spent up to now is       40.2 secs

     total energy              =    -148.43697898 Ry
     Harris-Foulkes estimate   =    -148.43698022 Ry
     estimated scf accuracy    <       0.00000172 Ry

     total magnetization       =     2.56 Bohr mag/cell
     absolute magnetization    =     2.73 Bohr mag/cell

     iteration #  9     ecut=    30.00 Ry     beta= 0.70
     Davidson diagonalization with overlap
     ethr =  9.58E-09,  avg # of iterations =  1.7

     total cpu time spent up to now is       44.4 secs

     total energy              =    -148.43697993 Ry
     Harris-Foulkes estimate   =    -148.43697994 Ry
     estimated scf accuracy    <       0.00000002 Ry

     total magnetization       =     2.56 Bohr mag/cell
     absolute magnetization    =     2.73 Bohr mag/cell

     iteration # 10     ecut=    30.00 Ry     beta= 0.70
     Davidson diagonalization with overlap
     ethr =  9.26E-11,  avg # of iterations =  2.9

     total cpu time spent up to now is       50.0 secs

     total energy              =    -148.43697997 Ry
     Harris-Foulkes estimate   =    -148.43697998 Ry
     estimated scf accuracy    <       0.00000001 Ry

     total magnetization       =     2.56 Bohr mag/cell
     absolute magnetization    =     2.73 Bohr mag/cell

     iteration # 11     ecut=    30.00 Ry     beta= 0.70
     Davidson diagonalization with overlap
     ethr =  7.39E-11,  avg # of iterations =  1.6

     Magnetic moment per site:
     atom:    1    charge:    7.4479    magn:    1.3198    constr:    0.0000
     atom:    2    charge:    7.4479    magn:    1.3198    constr:    0.0000

     total cpu time spent up to now is       54.0 secs

     End of self-consistent calculation

     Number of k-points >= 100: set verbosity='high' to print the bands.

     the Fermi energy is    16.9108 ev

!    total energy              =    -148.43697998 Ry
     Harris-Foulkes estimate   =    -148.43697998 Ry
     estimated scf accuracy    <          1.1E-10 Ry

     The total energy is the sum of the following terms:

     one-electron contribution =      15.59930055 Ry
     hartree contribution      =      18.93929644 Ry
     xc contribution           =     -65.07382030 Ry
     ewald contribution        =    -117.90560412 Ry
     smearing contrib. (-TS)   =       0.00384745 Ry

     total magnetization       =     2.56 Bohr mag/cell
     absolute magnetization    =     2.73 Bohr mag/cell

     convergence has been achieved in  11 iterations

     Forces acting on atoms (cartesian axes, Ry/au):

     atom    1 type  1   force =     0.00000000    0.00000000    0.00000000
     atom    2 type  1   force =     0.00000000    0.00000000    0.00000000

     Total force =     0.000000     Total SCF correction =     0.000000


     Computing stress (Cartesian axis) and pressure

          total   stress  (Ry/bohr**3)                   (kbar)     P=  217.73
   0.00106599   0.00000000   0.00000000        156.81      0.00      0.00
   0.00000000   0.00106599   0.00000000          0.00    156.81      0.00
   0.00000000  -0.00000000   0.00230831          0.00     -0.00    339.56


     Writing output data file Co.HCP.save/

     init_run     :      2.08s CPU      2.13s WALL (       1 calls)
     electrons    :     50.88s CPU     51.65s WALL (       1 calls)
     forces       :      0.92s CPU      0.92s WALL (       1 calls)
     stress       :      1.52s CPU      1.53s WALL (       1 calls)

     Called by init_run:
     wfcinit      :      1.19s CPU      1.21s WALL (       1 calls)
     potinit      :      0.05s CPU      0.05s WALL (       1 calls)
     hinit0       :      0.72s CPU      0.74s WALL (       1 calls)

     Called by electrons:
     c_bands      :     41.84s CPU     42.50s WALL (      11 calls)
     sum_band     :      7.59s CPU      7.70s WALL (      11 calls)
     v_of_rho     :      0.21s CPU      0.21s WALL (      12 calls)
     newd         :      1.25s CPU      1.27s WALL (      12 calls)
     mix_rho      :      0.06s CPU      0.06s WALL (      11 calls)

     Called by c_bands:
     init_us_2    :      0.88s CPU      0.90s WALL (    3800 calls)
     cegterg      :     39.99s CPU     40.62s WALL (    1672 calls)

     Called by sum_band:
     sum_band:bec :      0.15s CPU      0.15s WALL (    1672 calls)
     addusdens    :      1.96s CPU      1.98s WALL (      11 calls)

     Called by *egterg:
     h_psi        :     23.90s CPU     24.34s WALL (    5741 calls)
     s_psi        :      3.80s CPU      3.86s WALL (    5741 calls)
     g_psi        :      0.10s CPU      0.10s WALL (    3917 calls)
     cdiaghg      :      4.10s CPU      4.16s WALL (    5589 calls)

     Called by h_psi:
     h_psi:pot    :     23.82s CPU     24.25s WALL (    5741 calls)
     h_psi:calbec :      4.21s CPU      4.30s WALL (    5741 calls)
     vloc_psi     :     15.86s CPU     16.14s WALL (    5741 calls)
     add_vuspsi   :      3.71s CPU      3.78s WALL (    5741 calls)

     General routines
     calbec       :      6.38s CPU      6.51s WALL (    8173 calls)
     fft          :      0.15s CPU      0.15s WALL (     136 calls)
     ffts         :      0.02s CPU      0.02s WALL (      46 calls)
     fftw         :     14.98s CPU     15.27s WALL (  138334 calls)
     interpolate  :      0.04s CPU      0.04s WALL (      24 calls)

     Parallel routines

     PWSCF        :     55.74s CPU     56.62s WALL


   This run was terminated on:  17:37:37  19Feb2020            

=------------------------------------------------------------------------------=
   JOB DONE.
=------------------------------------------------------------------------------=
