     Message from routine get_command_line:
     unexpected argument # 2     :-input

     Program PWSCF v.6.4.1 starts on 19Feb2020 at 17:29:43 

     This program is part of the open-source Quantum ESPRESSO suite
     for quantum simulation of materials; please cite
         "P. Giannozzi et al., J. Phys.:Condens. Matter 21 395502 (2009);
         "P. Giannozzi et al., J. Phys.:Condens. Matter 29 465901 (2017);
          URL http://www.quantum-espresso.org", 
     in publications or presentations arising from this work. More details at
     http://www.quantum-espresso.org/quote

     Parallel version (MPI), running on     1 processors

     MPI processes distributed on     1 nodes
     Waiting for input...
     Reading input from standard input

     Current dimensions of program PWSCF are:
     Max number of different atomic species (ntypx) = 10
     Max number of k-points (npk) =  40000
     Max angular momentum in pseudopotentials (lmaxx) =  3
               file Co.pz-nd-rrkjus.UPF: wavefunction(s)  4S 3D renormalized

     Subspace diagonalization in iterative solution of the eigenvalue problem:
     a serial algorithm will be used


     G-vector sticks info
     --------------------
     sticks:   dense  smooth     PW     G-vecs:    dense   smooth      PW
     Sum         361     163     61                 8737     2875     603



     bravais-lattice index     =            4
     lattice parameter (alat)  =       4.5200  a.u.
     unit-cell volume          =     131.1565 (a.u.)^3
     number of atoms/cell      =            2
     number of atomic types    =            1
     number of electrons       =        18.00
     number of Kohn-Sham states=           13
     kinetic-energy cutoff     =      30.0000  Ry
     charge density cutoff     =     250.0000  Ry
     convergence threshold     =      1.0E-08
     mixing beta               =       0.7000
     number of iterations used =            8  plain     mixing
     Exchange-correlation      =  SLA  PZ   NOGX NOGC ( 1  1  0  0 0 0)

     celldm(1)=   4.520000  celldm(2)=   0.000000  celldm(3)=   1.640000
     celldm(4)=   0.000000  celldm(5)=   0.000000  celldm(6)=   0.000000

     crystal axes: (cart. coord. in units of alat)
               a(1) = (   1.000000   0.000000   0.000000 )  
               a(2) = (  -0.500000   0.866025   0.000000 )  
               a(3) = (   0.000000   0.000000   1.640000 )  

     reciprocal axes: (cart. coord. in units 2 pi/alat)
               b(1) = (  1.000000  0.577350 -0.000000 )  
               b(2) = (  0.000000  1.154701  0.000000 )  
               b(3) = (  0.000000 -0.000000  0.609756 )  


     PseudoPot. # 1 for Co read from file:
     ./Co.pz-nd-rrkjus.UPF
     MD5 check sum: c80159f6ca3a93d3df3cfc6468bb3c3d
     Pseudo is Ultrasoft + core correction, Zval =  9.0
     Generated by new atomic code, or converted to UPF format
     Using radial grid of  961 points,  6 beta functions with: 
                l(1) =   0
                l(2) =   0
                l(3) =   1
                l(4) =   1
                l(5) =   2
                l(6) =   2
     Q(r) pseudized with 0 coefficients 


     atomic species   valence    mass     pseudopotential
        Co             9.00    58.93300     Co( 1.00)

     Starting magnetic structure 
     atomic species   magnetization
        Co           0.700

     24 Sym. Ops., with inversion, found (12 have fractional translation)



   Cartesian axes

     site n.     atom                  positions (alat units)
         1           Co  tau(   1) = (  -0.0000000   0.5773503   0.4100000  )
         2           Co  tau(   2) = (   0.5000000   0.2886751   1.2300000  )

     number of k points=    76  Marzari-Vanderbilt smearing, width (Ry)=  0.0300
                       cart. coord. in units 2pi/alat
        k(    1) = (   0.0000000   0.0000000   0.0000000), wk =   0.0011574
        k(    2) = (   0.0000000   0.0000000   0.1016260), wk =   0.0023148
        k(    3) = (   0.0000000   0.0000000   0.2032520), wk =   0.0023148
        k(    4) = (   0.0000000   0.0000000  -0.3048780), wk =   0.0011574
        k(    5) = (   0.0000000   0.0962250   0.0000000), wk =   0.0069444
        k(    6) = (   0.0000000   0.0962250   0.1016260), wk =   0.0138889
        k(    7) = (   0.0000000   0.0962250   0.2032520), wk =   0.0138889
        k(    8) = (   0.0000000   0.0962250  -0.3048780), wk =   0.0069444
        k(    9) = (   0.0000000   0.1924501   0.0000000), wk =   0.0069444
        k(   10) = (   0.0000000   0.1924501   0.1016260), wk =   0.0138889
        k(   11) = (   0.0000000   0.1924501   0.2032520), wk =   0.0138889
        k(   12) = (   0.0000000   0.1924501  -0.3048780), wk =   0.0069444
        k(   13) = (   0.0000000   0.2886751   0.0000000), wk =   0.0069444
        k(   14) = (   0.0000000   0.2886751   0.1016260), wk =   0.0138889
        k(   15) = (   0.0000000   0.2886751   0.2032520), wk =   0.0138889
        k(   16) = (   0.0000000   0.2886751  -0.3048780), wk =   0.0069444
        k(   17) = (   0.0000000   0.3849002   0.0000000), wk =   0.0069444
        k(   18) = (   0.0000000   0.3849002   0.1016260), wk =   0.0138889
        k(   19) = (   0.0000000   0.3849002   0.2032520), wk =   0.0138889
        k(   20) = (   0.0000000   0.3849002  -0.3048780), wk =   0.0069444
        k(   21) = (   0.0000000   0.4811252   0.0000000), wk =   0.0069444
        k(   22) = (   0.0000000   0.4811252   0.1016260), wk =   0.0138889
        k(   23) = (   0.0000000   0.4811252   0.2032520), wk =   0.0138889
        k(   24) = (   0.0000000   0.4811252  -0.3048780), wk =   0.0069444
        k(   25) = (   0.0000000  -0.5773503   0.0000000), wk =   0.0034722
        k(   26) = (   0.0000000  -0.5773503   0.1016260), wk =   0.0069444
        k(   27) = (   0.0000000  -0.5773503   0.2032520), wk =   0.0069444
        k(   28) = (   0.0000000  -0.5773503  -0.3048780), wk =   0.0034722
        k(   29) = (   0.0833333   0.1443376   0.0000000), wk =   0.0069444
        k(   30) = (   0.0833333   0.1443376   0.1016260), wk =   0.0138889
        k(   31) = (   0.0833333   0.1443376   0.2032520), wk =   0.0138889
        k(   32) = (   0.0833333   0.1443376  -0.3048780), wk =   0.0069444
        k(   33) = (   0.0833333   0.2405626   0.0000000), wk =   0.0138889
        k(   34) = (   0.0833333   0.2405626   0.1016260), wk =   0.0277778
        k(   35) = (   0.0833333   0.2405626   0.2032520), wk =   0.0277778
        k(   36) = (   0.0833333   0.2405626  -0.3048780), wk =   0.0138889
        k(   37) = (   0.0833333   0.3367877   0.0000000), wk =   0.0138889
        k(   38) = (   0.0833333   0.3367877   0.1016260), wk =   0.0277778
        k(   39) = (   0.0833333   0.3367877   0.2032520), wk =   0.0277778
        k(   40) = (   0.0833333   0.3367877  -0.3048780), wk =   0.0138889
        k(   41) = (   0.0833333   0.4330127   0.0000000), wk =   0.0138889
        k(   42) = (   0.0833333   0.4330127   0.1016260), wk =   0.0277778
        k(   43) = (   0.0833333   0.4330127   0.2032520), wk =   0.0277778
        k(   44) = (   0.0833333   0.4330127  -0.3048780), wk =   0.0138889
        k(   45) = (   0.0833333   0.5292377   0.0000000), wk =   0.0138889
        k(   46) = (   0.0833333   0.5292377   0.1016260), wk =   0.0277778
        k(   47) = (   0.0833333   0.5292377   0.2032520), wk =   0.0277778
        k(   48) = (   0.0833333   0.5292377  -0.3048780), wk =   0.0138889
        k(   49) = (   0.1666667   0.2886751   0.0000000), wk =   0.0069444
        k(   50) = (   0.1666667   0.2886751   0.1016260), wk =   0.0138889
        k(   51) = (   0.1666667   0.2886751   0.2032520), wk =   0.0138889
        k(   52) = (   0.1666667   0.2886751  -0.3048780), wk =   0.0069444
        k(   53) = (   0.1666667   0.3849002   0.0000000), wk =   0.0138889
        k(   54) = (   0.1666667   0.3849002   0.1016260), wk =   0.0277778
        k(   55) = (   0.1666667   0.3849002   0.2032520), wk =   0.0277778
        k(   56) = (   0.1666667   0.3849002  -0.3048780), wk =   0.0138889
        k(   57) = (   0.1666667   0.4811252   0.0000000), wk =   0.0138889
        k(   58) = (   0.1666667   0.4811252   0.1016260), wk =   0.0277778
        k(   59) = (   0.1666667   0.4811252   0.2032520), wk =   0.0277778
        k(   60) = (   0.1666667   0.4811252  -0.3048780), wk =   0.0138889
        k(   61) = (   0.1666667   0.5773503   0.0000000), wk =   0.0069444
        k(   62) = (   0.1666667   0.5773503   0.1016260), wk =   0.0138889
        k(   63) = (   0.1666667   0.5773503   0.2032520), wk =   0.0138889
        k(   64) = (   0.1666667   0.5773503  -0.3048780), wk =   0.0069444
        k(   65) = (   0.2500000   0.4330127   0.0000000), wk =   0.0069444
        k(   66) = (   0.2500000   0.4330127   0.1016260), wk =   0.0138889
        k(   67) = (   0.2500000   0.4330127   0.2032520), wk =   0.0138889
        k(   68) = (   0.2500000   0.4330127  -0.3048780), wk =   0.0069444
        k(   69) = (   0.2500000   0.5292377   0.0000000), wk =   0.0138889
        k(   70) = (   0.2500000   0.5292377   0.1016260), wk =   0.0277778
        k(   71) = (   0.2500000   0.5292377   0.2032520), wk =   0.0277778
        k(   72) = (   0.2500000   0.5292377  -0.3048780), wk =   0.0138889
        k(   73) = (   0.3333333   0.5773503   0.0000000), wk =   0.0023148
        k(   74) = (   0.3333333   0.5773503   0.1016260), wk =   0.0046296
        k(   75) = (   0.3333333   0.5773503   0.2032520), wk =   0.0046296
        k(   76) = (   0.3333333   0.5773503  -0.3048780), wk =   0.0023148

     Dense  grid:     8737 G-vectors     FFT dimensions: (  24,  24,  40)

     Smooth grid:     2875 G-vectors     FFT dimensions: (  15,  15,  30)

     Estimated max dynamical RAM per process >      47.87 MB
     Generating pointlists ...
     new r_m :   0.4125 (alat units)  1.8645 (a.u.) for type    1

     Check: negative core charge=   -0.000017

     Initial potential from superposition of free atoms

     starting charge   17.99923, renormalised to   18.00000
     Starting wfcs are   12 randomized atomic wfcs +    1 random wfcs

     total cpu time spent up to now is        2.5 secs

     Self-consistent Calculation

     iteration #  1     ecut=    30.00 Ry     beta= 0.70
     Davidson diagonalization with overlap
     ethr =  1.00E-02,  avg # of iterations =  3.4

     total cpu time spent up to now is        8.0 secs

     total energy              =    -147.94341801 Ry
     Harris-Foulkes estimate   =    -148.12444203 Ry
     estimated scf accuracy    <       1.15288955 Ry

     total magnetization       =     4.82 Bohr mag/cell
     absolute magnetization    =     4.83 Bohr mag/cell

     iteration #  2     ecut=    30.00 Ry     beta= 0.70
     Davidson diagonalization with overlap
     ethr =  6.40E-03,  avg # of iterations =  2.3

     total cpu time spent up to now is       13.0 secs

     total energy              =    -148.17491061 Ry
     Harris-Foulkes estimate   =    -148.64943108 Ry
     estimated scf accuracy    <       1.17549778 Ry

     total magnetization       =     3.30 Bohr mag/cell
     absolute magnetization    =     3.43 Bohr mag/cell

     iteration #  3     ecut=    30.00 Ry     beta= 0.70
     Davidson diagonalization with overlap
     ethr =  6.40E-03,  avg # of iterations =  2.0

     total cpu time spent up to now is       17.1 secs

     total energy              =    -148.43363766 Ry
     Harris-Foulkes estimate   =    -148.40380259 Ry
     estimated scf accuracy    <       0.04238393 Ry

     total magnetization       =     3.52 Bohr mag/cell
     absolute magnetization    =     3.71 Bohr mag/cell

     iteration #  4     ecut=    30.00 Ry     beta= 0.70
     Davidson diagonalization with overlap
     ethr =  2.35E-04,  avg # of iterations =  2.0

     total cpu time spent up to now is       21.4 secs

     total energy              =    -148.44532455 Ry
     Harris-Foulkes estimate   =    -148.44526116 Ry
     estimated scf accuracy    <       0.00034328 Ry

     total magnetization       =     3.12 Bohr mag/cell
     absolute magnetization    =     3.36 Bohr mag/cell

     iteration #  5     ecut=    30.00 Ry     beta= 0.70
     Davidson diagonalization with overlap
     ethr =  1.91E-06,  avg # of iterations =  3.4

     total cpu time spent up to now is       27.5 secs

     total energy              =    -148.44568346 Ry
     Harris-Foulkes estimate   =    -148.44563810 Ry
     estimated scf accuracy    <       0.00009665 Ry

     total magnetization       =     3.09 Bohr mag/cell
     absolute magnetization    =     3.32 Bohr mag/cell

     iteration #  6     ecut=    30.00 Ry     beta= 0.70
     Davidson diagonalization with overlap
     ethr =  5.37E-07,  avg # of iterations =  1.9

     total cpu time spent up to now is       31.8 secs

     total energy              =    -148.44573115 Ry
     Harris-Foulkes estimate   =    -148.44572244 Ry
     estimated scf accuracy    <       0.00001073 Ry

     total magnetization       =     3.07 Bohr mag/cell
     absolute magnetization    =     3.28 Bohr mag/cell

     iteration #  7     ecut=    30.00 Ry     beta= 0.70
     Davidson diagonalization with overlap
     ethr =  5.96E-08,  avg # of iterations =  2.1

     total cpu time spent up to now is       36.6 secs

     total energy              =    -148.44573823 Ry
     Harris-Foulkes estimate   =    -148.44573861 Ry
     estimated scf accuracy    <       0.00000127 Ry

     total magnetization       =     3.06 Bohr mag/cell
     absolute magnetization    =     3.27 Bohr mag/cell

     iteration #  8     ecut=    30.00 Ry     beta= 0.70
     Davidson diagonalization with overlap
     ethr =  7.07E-09,  avg # of iterations =  2.0

     total cpu time spent up to now is       41.3 secs

     total energy              =    -148.44573940 Ry
     Harris-Foulkes estimate   =    -148.44573949 Ry
     estimated scf accuracy    <       0.00000019 Ry

     total magnetization       =     3.06 Bohr mag/cell
     absolute magnetization    =     3.26 Bohr mag/cell

     iteration #  9     ecut=    30.00 Ry     beta= 0.70
     Davidson diagonalization with overlap
     ethr =  1.08E-09,  avg # of iterations =  2.1

     total cpu time spent up to now is       45.9 secs

     total energy              =    -148.44573945 Ry
     Harris-Foulkes estimate   =    -148.44573946 Ry
     estimated scf accuracy    <       0.00000002 Ry

     total magnetization       =     3.06 Bohr mag/cell
     absolute magnetization    =     3.26 Bohr mag/cell

     iteration # 10     ecut=    30.00 Ry     beta= 0.70
     Davidson diagonalization with overlap
     ethr =  9.50E-11,  avg # of iterations =  2.2

     Magnetic moment per site:
     atom:    1    charge:    7.5850    magn:    1.5761    constr:    0.0000
     atom:    2    charge:    7.5850    magn:    1.5761    constr:    0.0000

     total cpu time spent up to now is       50.5 secs

     End of self-consistent calculation

     Number of k-points >= 100: set verbosity='high' to print the bands.

     the Fermi energy is    15.8698 ev

!    total energy              =    -148.44573946 Ry
     Harris-Foulkes estimate   =    -148.44573946 Ry
     estimated scf accuracy    <          1.7E-09 Ry

     The total energy is the sum of the following terms:

     one-electron contribution =      12.92891680 Ry
     hartree contribution      =      19.65265993 Ry
     xc contribution           =     -65.01044075 Ry
     ewald contribution        =    -116.02472491 Ry
     smearing contrib. (-TS)   =       0.00784948 Ry

     total magnetization       =     3.06 Bohr mag/cell
     absolute magnetization    =     3.26 Bohr mag/cell

     convergence has been achieved in  10 iterations

     Forces acting on atoms (cartesian axes, Ry/au):

     atom    1 type  1   force =     0.00000000   -0.00000000    0.00000000
     atom    2 type  1   force =     0.00000000    0.00000000    0.00000000

     Total force =     0.000000     Total SCF correction =     0.000000


     Computing stress (Cartesian axis) and pressure

          total   stress  (Ry/bohr**3)                   (kbar)     P=   76.25
   0.00062594   0.00000000  -0.00000000         92.08      0.00     -0.00
   0.00000000   0.00062594   0.00000000          0.00     92.08      0.00
   0.00000000   0.00000000   0.00030312          0.00      0.00     44.59


     Writing output data file Co.HCP.save/

     init_run     :      2.14s CPU      2.21s WALL (       1 calls)
     electrons    :     47.27s CPU     48.00s WALL (       1 calls)
     forces       :      0.97s CPU      0.98s WALL (       1 calls)
     stress       :      1.65s CPU      1.66s WALL (       1 calls)

     Called by init_run:
     wfcinit      :      1.24s CPU      1.28s WALL (       1 calls)
     potinit      :      0.05s CPU      0.06s WALL (       1 calls)
     hinit0       :      0.71s CPU      0.72s WALL (       1 calls)

     Called by electrons:
     c_bands      :     38.83s CPU     39.44s WALL (      10 calls)
     sum_band     :      7.02s CPU      7.13s WALL (      10 calls)
     v_of_rho     :      0.21s CPU      0.22s WALL (      11 calls)
     newd         :      1.22s CPU      1.24s WALL (      11 calls)
     mix_rho      :      0.07s CPU      0.07s WALL (      10 calls)

     Called by c_bands:
     init_us_2    :      0.88s CPU      0.89s WALL (    3496 calls)
     cegterg      :     37.04s CPU     37.62s WALL (    1520 calls)

     Called by sum_band:
     sum_band:bec :      0.14s CPU      0.14s WALL (    1520 calls)
     addusdens    :      1.88s CPU      1.89s WALL (      10 calls)

     Called by *egterg:
     h_psi        :     22.15s CPU     22.54s WALL (    5235 calls)
     s_psi        :      3.55s CPU      3.61s WALL (    5235 calls)
     g_psi        :      0.09s CPU      0.10s WALL (    3563 calls)
     cdiaghg      :      3.70s CPU      3.75s WALL (    5083 calls)

     Called by h_psi:
     h_psi:pot    :     22.07s CPU     22.46s WALL (    5235 calls)
     h_psi:calbec :      3.94s CPU      4.02s WALL (    5235 calls)
     vloc_psi     :     14.53s CPU     14.76s WALL (    5235 calls)
     add_vuspsi   :      3.57s CPU      3.64s WALL (    5235 calls)

     General routines
     calbec       :      6.13s CPU      6.25s WALL (    7515 calls)
     fft          :      0.16s CPU      0.17s WALL (     125 calls)
     ffts         :      0.02s CPU      0.02s WALL (      42 calls)
     fftw         :     13.64s CPU     13.88s WALL (  125018 calls)
     interpolate  :      0.03s CPU      0.03s WALL (      22 calls)

     Parallel routines

     PWSCF        :     52.40s CPU     53.25s WALL


   This run was terminated on:  17:30:36  19Feb2020            

=------------------------------------------------------------------------------=
   JOB DONE.
=------------------------------------------------------------------------------=
