     Message from routine get_command_line:
     unexpected argument # 2     :-input

     Program PWSCF v.6.4.1 starts on 19Feb2020 at 18:12:14 

     This program is part of the open-source Quantum ESPRESSO suite
     for quantum simulation of materials; please cite
         "P. Giannozzi et al., J. Phys.:Condens. Matter 21 395502 (2009);
         "P. Giannozzi et al., J. Phys.:Condens. Matter 29 465901 (2017);
          URL http://www.quantum-espresso.org", 
     in publications or presentations arising from this work. More details at
     http://www.quantum-espresso.org/quote

     Parallel version (MPI), running on     1 processors

     MPI processes distributed on     1 nodes
     Waiting for input...
     Reading input from standard input

     Current dimensions of program PWSCF are:
     Max number of different atomic species (ntypx) = 10
     Max number of k-points (npk) =  40000
     Max angular momentum in pseudopotentials (lmaxx) =  3
               file Co.pz-nd-rrkjus.UPF: wavefunction(s)  4S 3D renormalized

     Subspace diagonalization in iterative solution of the eigenvalue problem:
     a serial algorithm will be used


     G-vector sticks info
     --------------------
     sticks:   dense  smooth     PW     G-vecs:    dense   smooth      PW
     Sum         367     169     61                 8803     2905     603



     bravais-lattice index     =            4
     lattice parameter (alat)  =       4.6000  a.u.
     unit-cell volume          =     131.5009 (a.u.)^3
     number of atoms/cell      =            2
     number of atomic types    =            1
     number of electrons       =        18.00
     number of Kohn-Sham states=           13
     kinetic-energy cutoff     =      30.0000  Ry
     charge density cutoff     =     250.0000  Ry
     convergence threshold     =      1.0E-08
     mixing beta               =       0.7000
     number of iterations used =            8  plain     mixing
     Exchange-correlation      =  SLA  PZ   NOGX NOGC ( 1  1  0  0 0 0)

     celldm(1)=   4.600000  celldm(2)=   0.000000  celldm(3)=   1.560000
     celldm(4)=   0.000000  celldm(5)=   0.000000  celldm(6)=   0.000000

     crystal axes: (cart. coord. in units of alat)
               a(1) = (   1.000000   0.000000   0.000000 )  
               a(2) = (  -0.500000   0.866025   0.000000 )  
               a(3) = (   0.000000   0.000000   1.560000 )  

     reciprocal axes: (cart. coord. in units 2 pi/alat)
               b(1) = (  1.000000  0.577350 -0.000000 )  
               b(2) = (  0.000000  1.154701  0.000000 )  
               b(3) = (  0.000000 -0.000000  0.641026 )  


     PseudoPot. # 1 for Co read from file:
     ./Co.pz-nd-rrkjus.UPF
     MD5 check sum: c80159f6ca3a93d3df3cfc6468bb3c3d
     Pseudo is Ultrasoft + core correction, Zval =  9.0
     Generated by new atomic code, or converted to UPF format
     Using radial grid of  961 points,  6 beta functions with: 
                l(1) =   0
                l(2) =   0
                l(3) =   1
                l(4) =   1
                l(5) =   2
                l(6) =   2
     Q(r) pseudized with 0 coefficients 


     atomic species   valence    mass     pseudopotential
        Co             9.00    58.93300     Co( 1.00)

     Starting magnetic structure 
     atomic species   magnetization
        Co           0.700

     24 Sym. Ops., with inversion, found (12 have fractional translation)



   Cartesian axes

     site n.     atom                  positions (alat units)
         1           Co  tau(   1) = (  -0.0000000   0.5773503   0.3900000  )
         2           Co  tau(   2) = (   0.5000000   0.2886751   1.1700000  )

     number of k points=    76  Marzari-Vanderbilt smearing, width (Ry)=  0.0300
                       cart. coord. in units 2pi/alat
        k(    1) = (   0.0000000   0.0000000   0.0000000), wk =   0.0011574
        k(    2) = (   0.0000000   0.0000000   0.1068376), wk =   0.0023148
        k(    3) = (   0.0000000   0.0000000   0.2136752), wk =   0.0023148
        k(    4) = (   0.0000000   0.0000000  -0.3205128), wk =   0.0011574
        k(    5) = (   0.0000000   0.0962250   0.0000000), wk =   0.0069444
        k(    6) = (   0.0000000   0.0962250   0.1068376), wk =   0.0138889
        k(    7) = (   0.0000000   0.0962250   0.2136752), wk =   0.0138889
        k(    8) = (   0.0000000   0.0962250  -0.3205128), wk =   0.0069444
        k(    9) = (   0.0000000   0.1924501   0.0000000), wk =   0.0069444
        k(   10) = (   0.0000000   0.1924501   0.1068376), wk =   0.0138889
        k(   11) = (   0.0000000   0.1924501   0.2136752), wk =   0.0138889
        k(   12) = (   0.0000000   0.1924501  -0.3205128), wk =   0.0069444
        k(   13) = (   0.0000000   0.2886751   0.0000000), wk =   0.0069444
        k(   14) = (   0.0000000   0.2886751   0.1068376), wk =   0.0138889
        k(   15) = (   0.0000000   0.2886751   0.2136752), wk =   0.0138889
        k(   16) = (   0.0000000   0.2886751  -0.3205128), wk =   0.0069444
        k(   17) = (   0.0000000   0.3849002   0.0000000), wk =   0.0069444
        k(   18) = (   0.0000000   0.3849002   0.1068376), wk =   0.0138889
        k(   19) = (   0.0000000   0.3849002   0.2136752), wk =   0.0138889
        k(   20) = (   0.0000000   0.3849002  -0.3205128), wk =   0.0069444
        k(   21) = (   0.0000000   0.4811252   0.0000000), wk =   0.0069444
        k(   22) = (   0.0000000   0.4811252   0.1068376), wk =   0.0138889
        k(   23) = (   0.0000000   0.4811252   0.2136752), wk =   0.0138889
        k(   24) = (   0.0000000   0.4811252  -0.3205128), wk =   0.0069444
        k(   25) = (   0.0000000  -0.5773503   0.0000000), wk =   0.0034722
        k(   26) = (   0.0000000  -0.5773503   0.1068376), wk =   0.0069444
        k(   27) = (   0.0000000  -0.5773503   0.2136752), wk =   0.0069444
        k(   28) = (   0.0000000  -0.5773503  -0.3205128), wk =   0.0034722
        k(   29) = (   0.0833333   0.1443376   0.0000000), wk =   0.0069444
        k(   30) = (   0.0833333   0.1443376   0.1068376), wk =   0.0138889
        k(   31) = (   0.0833333   0.1443376   0.2136752), wk =   0.0138889
        k(   32) = (   0.0833333   0.1443376  -0.3205128), wk =   0.0069444
        k(   33) = (   0.0833333   0.2405626   0.0000000), wk =   0.0138889
        k(   34) = (   0.0833333   0.2405626   0.1068376), wk =   0.0277778
        k(   35) = (   0.0833333   0.2405626   0.2136752), wk =   0.0277778
        k(   36) = (   0.0833333   0.2405626  -0.3205128), wk =   0.0138889
        k(   37) = (   0.0833333   0.3367877   0.0000000), wk =   0.0138889
        k(   38) = (   0.0833333   0.3367877   0.1068376), wk =   0.0277778
        k(   39) = (   0.0833333   0.3367877   0.2136752), wk =   0.0277778
        k(   40) = (   0.0833333   0.3367877  -0.3205128), wk =   0.0138889
        k(   41) = (   0.0833333   0.4330127   0.0000000), wk =   0.0138889
        k(   42) = (   0.0833333   0.4330127   0.1068376), wk =   0.0277778
        k(   43) = (   0.0833333   0.4330127   0.2136752), wk =   0.0277778
        k(   44) = (   0.0833333   0.4330127  -0.3205128), wk =   0.0138889
        k(   45) = (   0.0833333   0.5292377   0.0000000), wk =   0.0138889
        k(   46) = (   0.0833333   0.5292377   0.1068376), wk =   0.0277778
        k(   47) = (   0.0833333   0.5292377   0.2136752), wk =   0.0277778
        k(   48) = (   0.0833333   0.5292377  -0.3205128), wk =   0.0138889
        k(   49) = (   0.1666667   0.2886751   0.0000000), wk =   0.0069444
        k(   50) = (   0.1666667   0.2886751   0.1068376), wk =   0.0138889
        k(   51) = (   0.1666667   0.2886751   0.2136752), wk =   0.0138889
        k(   52) = (   0.1666667   0.2886751  -0.3205128), wk =   0.0069444
        k(   53) = (   0.1666667   0.3849002   0.0000000), wk =   0.0138889
        k(   54) = (   0.1666667   0.3849002   0.1068376), wk =   0.0277778
        k(   55) = (   0.1666667   0.3849002   0.2136752), wk =   0.0277778
        k(   56) = (   0.1666667   0.3849002  -0.3205128), wk =   0.0138889
        k(   57) = (   0.1666667   0.4811252   0.0000000), wk =   0.0138889
        k(   58) = (   0.1666667   0.4811252   0.1068376), wk =   0.0277778
        k(   59) = (   0.1666667   0.4811252   0.2136752), wk =   0.0277778
        k(   60) = (   0.1666667   0.4811252  -0.3205128), wk =   0.0138889
        k(   61) = (   0.1666667   0.5773503   0.0000000), wk =   0.0069444
        k(   62) = (   0.1666667   0.5773503   0.1068376), wk =   0.0138889
        k(   63) = (   0.1666667   0.5773503   0.2136752), wk =   0.0138889
        k(   64) = (   0.1666667   0.5773503  -0.3205128), wk =   0.0069444
        k(   65) = (   0.2500000   0.4330127   0.0000000), wk =   0.0069444
        k(   66) = (   0.2500000   0.4330127   0.1068376), wk =   0.0138889
        k(   67) = (   0.2500000   0.4330127   0.2136752), wk =   0.0138889
        k(   68) = (   0.2500000   0.4330127  -0.3205128), wk =   0.0069444
        k(   69) = (   0.2500000   0.5292377   0.0000000), wk =   0.0138889
        k(   70) = (   0.2500000   0.5292377   0.1068376), wk =   0.0277778
        k(   71) = (   0.2500000   0.5292377   0.2136752), wk =   0.0277778
        k(   72) = (   0.2500000   0.5292377  -0.3205128), wk =   0.0138889
        k(   73) = (   0.3333333   0.5773503   0.0000000), wk =   0.0023148
        k(   74) = (   0.3333333   0.5773503   0.1068376), wk =   0.0046296
        k(   75) = (   0.3333333   0.5773503   0.2136752), wk =   0.0046296
        k(   76) = (   0.3333333   0.5773503  -0.3205128), wk =   0.0023148

     Dense  grid:     8803 G-vectors     FFT dimensions: (  24,  24,  40)

     Smooth grid:     2905 G-vectors     FFT dimensions: (  18,  18,  30)

     Estimated max dynamical RAM per process >      48.17 MB
     Generating pointlists ...
     new r_m :   0.4003 (alat units)  1.8414 (a.u.) for type    1

     Check: negative core charge=   -0.000019

     Initial potential from superposition of free atoms

     starting charge   17.99923, renormalised to   18.00000
     Starting wfcs are   12 randomized atomic wfcs +    1 random wfcs

     total cpu time spent up to now is        3.6 secs

     Self-consistent Calculation

     iteration #  1     ecut=    30.00 Ry     beta= 0.70
     Davidson diagonalization with overlap
     ethr =  1.00E-02,  avg # of iterations =  3.4

     total cpu time spent up to now is       12.3 secs

     total energy              =    -147.94381313 Ry
     Harris-Foulkes estimate   =    -148.11936043 Ry
     estimated scf accuracy    <       1.14356775 Ry

     total magnetization       =     4.83 Bohr mag/cell
     absolute magnetization    =     4.84 Bohr mag/cell

     iteration #  2     ecut=    30.00 Ry     beta= 0.70
     Davidson diagonalization with overlap
     ethr =  6.35E-03,  avg # of iterations =  2.4

     total cpu time spent up to now is       20.4 secs

     total energy              =    -148.17722187 Ry
     Harris-Foulkes estimate   =    -148.64332693 Ry
     estimated scf accuracy    <       1.15671638 Ry

     total magnetization       =     3.30 Bohr mag/cell
     absolute magnetization    =     3.43 Bohr mag/cell

     iteration #  3     ecut=    30.00 Ry     beta= 0.70
     Davidson diagonalization with overlap
     ethr =  6.35E-03,  avg # of iterations =  2.0

     total cpu time spent up to now is       27.1 secs

     total energy              =    -148.43281893 Ry
     Harris-Foulkes estimate   =    -148.40248748 Ry
     estimated scf accuracy    <       0.04357276 Ry

     total magnetization       =     3.50 Bohr mag/cell
     absolute magnetization    =     3.69 Bohr mag/cell

     iteration #  4     ecut=    30.00 Ry     beta= 0.70
     Davidson diagonalization with overlap
     ethr =  2.42E-04,  avg # of iterations =  2.0

     total cpu time spent up to now is       34.1 secs

     total energy              =    -148.44417142 Ry
     Harris-Foulkes estimate   =    -148.44403010 Ry
     estimated scf accuracy    <       0.00029211 Ry

     total magnetization       =     3.06 Bohr mag/cell
     absolute magnetization    =     3.32 Bohr mag/cell

     iteration #  5     ecut=    30.00 Ry     beta= 0.70
     Davidson diagonalization with overlap
     ethr =  1.62E-06,  avg # of iterations =  3.6

     total cpu time spent up to now is       44.1 secs

     total energy              =    -148.44447521 Ry
     Harris-Foulkes estimate   =    -148.44450656 Ry
     estimated scf accuracy    <       0.00010434 Ry

     total magnetization       =     3.02 Bohr mag/cell
     absolute magnetization    =     3.25 Bohr mag/cell

     iteration #  6     ecut=    30.00 Ry     beta= 0.70
     Davidson diagonalization with overlap
     ethr =  5.80E-07,  avg # of iterations =  2.0

     total cpu time spent up to now is       51.7 secs

     total energy              =    -148.44460971 Ry
     Harris-Foulkes estimate   =    -148.44465328 Ry
     estimated scf accuracy    <       0.00008646 Ry

     total magnetization       =     2.96 Bohr mag/cell
     absolute magnetization    =     3.17 Bohr mag/cell

     iteration #  7     ecut=    30.00 Ry     beta= 0.70
     Davidson diagonalization with overlap
     ethr =  4.80E-07,  avg # of iterations =  1.6

     total cpu time spent up to now is       58.6 secs

     total energy              =    -148.44463168 Ry
     Harris-Foulkes estimate   =    -148.44463220 Ry
     estimated scf accuracy    <       0.00000127 Ry

     total magnetization       =     2.97 Bohr mag/cell
     absolute magnetization    =     3.18 Bohr mag/cell

     iteration #  8     ecut=    30.00 Ry     beta= 0.70
     Davidson diagonalization with overlap
     ethr =  7.05E-09,  avg # of iterations =  3.0

     total cpu time spent up to now is       67.5 secs

     total energy              =    -148.44463334 Ry
     Harris-Foulkes estimate   =    -148.44463333 Ry
     estimated scf accuracy    <       0.00000003 Ry

     total magnetization       =     2.97 Bohr mag/cell
     absolute magnetization    =     3.17 Bohr mag/cell

     iteration #  9     ecut=    30.00 Ry     beta= 0.70
     Davidson diagonalization with overlap
     ethr =  1.89E-10,  avg # of iterations =  2.5

     Magnetic moment per site:
     atom:    1    charge:    7.5078    magn:    1.5313    constr:    0.0000
     atom:    2    charge:    7.5078    magn:    1.5313    constr:    0.0000

     total cpu time spent up to now is       75.3 secs

     End of self-consistent calculation

     Number of k-points >= 100: set verbosity='high' to print the bands.

     the Fermi energy is    15.7961 ev

!    total energy              =    -148.44463338 Ry
     Harris-Foulkes estimate   =    -148.44463337 Ry
     estimated scf accuracy    <          2.4E-09 Ry

     The total energy is the sum of the following terms:

     one-electron contribution =      12.71782232 Ry
     hartree contribution      =      19.71942781 Ry
     xc contribution           =     -65.00073061 Ry
     ewald contribution        =    -115.88882947 Ry
     smearing contrib. (-TS)   =       0.00767658 Ry

     total magnetization       =     2.97 Bohr mag/cell
     absolute magnetization    =     3.17 Bohr mag/cell

     convergence has been achieved in   9 iterations

     Forces acting on atoms (cartesian axes, Ry/au):

     atom    1 type  1   force =    -0.00000000   -0.00000000    0.00000000
     atom    2 type  1   force =     0.00000000   -0.00000000    0.00000000

     Total force =     0.000000     Total SCF correction =     0.000000


     Computing stress (Cartesian axis) and pressure

          total   stress  (Ry/bohr**3)                   (kbar)     P=   63.72
   0.00014070   0.00000000   0.00000000         20.70      0.00      0.00
   0.00000000   0.00014070   0.00000000          0.00     20.70      0.00
   0.00000000   0.00000000   0.00101799          0.00      0.00    149.75


     Writing output data file Co.HCP.save/

     init_run     :      3.21s CPU      3.31s WALL (       1 calls)
     electrons    :     70.76s CPU     71.68s WALL (       1 calls)
     forces       :      0.98s CPU      0.99s WALL (       1 calls)
     stress       :      1.60s CPU      1.63s WALL (       1 calls)

     Called by init_run:
     wfcinit      :      2.25s CPU      2.30s WALL (       1 calls)
     potinit      :      0.07s CPU      0.07s WALL (       1 calls)
     hinit0       :      0.74s CPU      0.77s WALL (       1 calls)

     Called by electrons:
     c_bands      :     58.51s CPU     59.26s WALL (       9 calls)
     sum_band     :     11.00s CPU     11.15s WALL (       9 calls)
     v_of_rho     :      0.19s CPU      0.19s WALL (      10 calls)
     newd         :      1.11s CPU      1.14s WALL (      10 calls)
     mix_rho      :      0.06s CPU      0.06s WALL (       9 calls)

     Called by c_bands:
     init_us_2    :      0.79s CPU      0.81s WALL (    3192 calls)
     cegterg      :     56.87s CPU     57.59s WALL (    1368 calls)

     Called by sum_band:
     sum_band:bec :      0.13s CPU      0.13s WALL (    1368 calls)
     addusdens    :      1.67s CPU      1.69s WALL (       9 calls)

     Called by *egterg:
     h_psi        :     43.89s CPU     44.48s WALL (    4922 calls)
     s_psi        :      3.36s CPU      3.39s WALL (    4922 calls)
     g_psi        :      0.09s CPU      0.09s WALL (    3402 calls)
     cdiaghg      :      3.65s CPU      3.71s WALL (    4770 calls)

     Called by h_psi:
     h_psi:pot    :     43.82s CPU     44.41s WALL (    4922 calls)
     h_psi:calbec :      3.74s CPU      3.78s WALL (    4922 calls)
     vloc_psi     :     36.74s CPU     37.23s WALL (    4922 calls)
     add_vuspsi   :      3.31s CPU      3.36s WALL (    4922 calls)

     General routines
     calbec       :      5.74s CPU      5.82s WALL (    7050 calls)
     fft          :      0.15s CPU      0.15s WALL (     114 calls)
     ffts         :      0.05s CPU      0.05s WALL (      38 calls)
     fftw         :     39.24s CPU     39.81s WALL (  114930 calls)
     interpolate  :      0.06s CPU      0.06s WALL (      20 calls)

     Parallel routines

     PWSCF        :   1m16.92s CPU   1m18.01s WALL


   This run was terminated on:  18:13:32  19Feb2020            

=------------------------------------------------------------------------------=
   JOB DONE.
=------------------------------------------------------------------------------=
