     Message from routine get_command_line:
     unexpected argument # 2     :-input

     Program PWSCF v.6.4.1 starts on 19Feb2020 at 19:30:58 

     This program is part of the open-source Quantum ESPRESSO suite
     for quantum simulation of materials; please cite
         "P. Giannozzi et al., J. Phys.:Condens. Matter 21 395502 (2009);
         "P. Giannozzi et al., J. Phys.:Condens. Matter 29 465901 (2017);
          URL http://www.quantum-espresso.org", 
     in publications or presentations arising from this work. More details at
     http://www.quantum-espresso.org/quote

     Parallel version (MPI), running on     1 processors

     MPI processes distributed on     1 nodes
     Waiting for input...
     Reading input from standard input

     Current dimensions of program PWSCF are:
     Max number of different atomic species (ntypx) = 10
     Max number of k-points (npk) =  40000
     Max angular momentum in pseudopotentials (lmaxx) =  3
               file Co.pz-nd-rrkjus.UPF: wavefunction(s)  4S 3D renormalized

     Subspace diagonalization in iterative solution of the eigenvalue problem:
     a serial algorithm will be used


     G-vector sticks info
     --------------------
     sticks:   dense  smooth     PW     G-vecs:    dense   smooth      PW
     Sum         379     187     61                10235     3407     713



     bravais-lattice index     =            4
     lattice parameter (alat)  =       4.6800  a.u.
     unit-cell volume          =     152.6851 (a.u.)^3
     number of atoms/cell      =            2
     number of atomic types    =            1
     number of electrons       =        18.00
     number of Kohn-Sham states=           13
     kinetic-energy cutoff     =      30.0000  Ry
     charge density cutoff     =     250.0000  Ry
     convergence threshold     =      1.0E-08
     mixing beta               =       0.7000
     number of iterations used =            8  plain     mixing
     Exchange-correlation      =  SLA  PZ   NOGX NOGC ( 1  1  0  0 0 0)

     celldm(1)=   4.680000  celldm(2)=   0.000000  celldm(3)=   1.720000
     celldm(4)=   0.000000  celldm(5)=   0.000000  celldm(6)=   0.000000

     crystal axes: (cart. coord. in units of alat)
               a(1) = (   1.000000   0.000000   0.000000 )  
               a(2) = (  -0.500000   0.866025   0.000000 )  
               a(3) = (   0.000000   0.000000   1.720000 )  

     reciprocal axes: (cart. coord. in units 2 pi/alat)
               b(1) = (  1.000000  0.577350 -0.000000 )  
               b(2) = (  0.000000  1.154701  0.000000 )  
               b(3) = (  0.000000 -0.000000  0.581395 )  


     PseudoPot. # 1 for Co read from file:
     ./Co.pz-nd-rrkjus.UPF
     MD5 check sum: c80159f6ca3a93d3df3cfc6468bb3c3d
     Pseudo is Ultrasoft + core correction, Zval =  9.0
     Generated by new atomic code, or converted to UPF format
     Using radial grid of  961 points,  6 beta functions with: 
                l(1) =   0
                l(2) =   0
                l(3) =   1
                l(4) =   1
                l(5) =   2
                l(6) =   2
     Q(r) pseudized with 0 coefficients 


     atomic species   valence    mass     pseudopotential
        Co             9.00    58.93300     Co( 1.00)

     Starting magnetic structure 
     atomic species   magnetization
        Co           0.700

     24 Sym. Ops., with inversion, found (12 have fractional translation)



   Cartesian axes

     site n.     atom                  positions (alat units)
         1           Co  tau(   1) = (  -0.0000000   0.5773503   0.4300000  )
         2           Co  tau(   2) = (   0.5000000   0.2886751   1.2900000  )

     number of k points=    76  Marzari-Vanderbilt smearing, width (Ry)=  0.0300
                       cart. coord. in units 2pi/alat
        k(    1) = (   0.0000000   0.0000000   0.0000000), wk =   0.0011574
        k(    2) = (   0.0000000   0.0000000   0.0968992), wk =   0.0023148
        k(    3) = (   0.0000000   0.0000000   0.1937984), wk =   0.0023148
        k(    4) = (   0.0000000   0.0000000  -0.2906977), wk =   0.0011574
        k(    5) = (   0.0000000   0.0962250   0.0000000), wk =   0.0069444
        k(    6) = (   0.0000000   0.0962250   0.0968992), wk =   0.0138889
        k(    7) = (   0.0000000   0.0962250   0.1937984), wk =   0.0138889
        k(    8) = (   0.0000000   0.0962250  -0.2906977), wk =   0.0069444
        k(    9) = (   0.0000000   0.1924501   0.0000000), wk =   0.0069444
        k(   10) = (   0.0000000   0.1924501   0.0968992), wk =   0.0138889
        k(   11) = (   0.0000000   0.1924501   0.1937984), wk =   0.0138889
        k(   12) = (   0.0000000   0.1924501  -0.2906977), wk =   0.0069444
        k(   13) = (   0.0000000   0.2886751   0.0000000), wk =   0.0069444
        k(   14) = (   0.0000000   0.2886751   0.0968992), wk =   0.0138889
        k(   15) = (   0.0000000   0.2886751   0.1937984), wk =   0.0138889
        k(   16) = (   0.0000000   0.2886751  -0.2906977), wk =   0.0069444
        k(   17) = (   0.0000000   0.3849002   0.0000000), wk =   0.0069444
        k(   18) = (   0.0000000   0.3849002   0.0968992), wk =   0.0138889
        k(   19) = (   0.0000000   0.3849002   0.1937984), wk =   0.0138889
        k(   20) = (   0.0000000   0.3849002  -0.2906977), wk =   0.0069444
        k(   21) = (   0.0000000   0.4811252   0.0000000), wk =   0.0069444
        k(   22) = (   0.0000000   0.4811252   0.0968992), wk =   0.0138889
        k(   23) = (   0.0000000   0.4811252   0.1937984), wk =   0.0138889
        k(   24) = (   0.0000000   0.4811252  -0.2906977), wk =   0.0069444
        k(   25) = (   0.0000000  -0.5773503   0.0000000), wk =   0.0034722
        k(   26) = (   0.0000000  -0.5773503   0.0968992), wk =   0.0069444
        k(   27) = (   0.0000000  -0.5773503   0.1937984), wk =   0.0069444
        k(   28) = (   0.0000000  -0.5773503  -0.2906977), wk =   0.0034722
        k(   29) = (   0.0833333   0.1443376   0.0000000), wk =   0.0069444
        k(   30) = (   0.0833333   0.1443376   0.0968992), wk =   0.0138889
        k(   31) = (   0.0833333   0.1443376   0.1937984), wk =   0.0138889
        k(   32) = (   0.0833333   0.1443376  -0.2906977), wk =   0.0069444
        k(   33) = (   0.0833333   0.2405626   0.0000000), wk =   0.0138889
        k(   34) = (   0.0833333   0.2405626   0.0968992), wk =   0.0277778
        k(   35) = (   0.0833333   0.2405626   0.1937984), wk =   0.0277778
        k(   36) = (   0.0833333   0.2405626  -0.2906977), wk =   0.0138889
        k(   37) = (   0.0833333   0.3367877   0.0000000), wk =   0.0138889
        k(   38) = (   0.0833333   0.3367877   0.0968992), wk =   0.0277778
        k(   39) = (   0.0833333   0.3367877   0.1937984), wk =   0.0277778
        k(   40) = (   0.0833333   0.3367877  -0.2906977), wk =   0.0138889
        k(   41) = (   0.0833333   0.4330127   0.0000000), wk =   0.0138889
        k(   42) = (   0.0833333   0.4330127   0.0968992), wk =   0.0277778
        k(   43) = (   0.0833333   0.4330127   0.1937984), wk =   0.0277778
        k(   44) = (   0.0833333   0.4330127  -0.2906977), wk =   0.0138889
        k(   45) = (   0.0833333   0.5292377   0.0000000), wk =   0.0138889
        k(   46) = (   0.0833333   0.5292377   0.0968992), wk =   0.0277778
        k(   47) = (   0.0833333   0.5292377   0.1937984), wk =   0.0277778
        k(   48) = (   0.0833333   0.5292377  -0.2906977), wk =   0.0138889
        k(   49) = (   0.1666667   0.2886751   0.0000000), wk =   0.0069444
        k(   50) = (   0.1666667   0.2886751   0.0968992), wk =   0.0138889
        k(   51) = (   0.1666667   0.2886751   0.1937984), wk =   0.0138889
        k(   52) = (   0.1666667   0.2886751  -0.2906977), wk =   0.0069444
        k(   53) = (   0.1666667   0.3849002   0.0000000), wk =   0.0138889
        k(   54) = (   0.1666667   0.3849002   0.0968992), wk =   0.0277778
        k(   55) = (   0.1666667   0.3849002   0.1937984), wk =   0.0277778
        k(   56) = (   0.1666667   0.3849002  -0.2906977), wk =   0.0138889
        k(   57) = (   0.1666667   0.4811252   0.0000000), wk =   0.0138889
        k(   58) = (   0.1666667   0.4811252   0.0968992), wk =   0.0277778
        k(   59) = (   0.1666667   0.4811252   0.1937984), wk =   0.0277778
        k(   60) = (   0.1666667   0.4811252  -0.2906977), wk =   0.0138889
        k(   61) = (   0.1666667   0.5773503   0.0000000), wk =   0.0069444
        k(   62) = (   0.1666667   0.5773503   0.0968992), wk =   0.0138889
        k(   63) = (   0.1666667   0.5773503   0.1937984), wk =   0.0138889
        k(   64) = (   0.1666667   0.5773503  -0.2906977), wk =   0.0069444
        k(   65) = (   0.2500000   0.4330127   0.0000000), wk =   0.0069444
        k(   66) = (   0.2500000   0.4330127   0.0968992), wk =   0.0138889
        k(   67) = (   0.2500000   0.4330127   0.1937984), wk =   0.0138889
        k(   68) = (   0.2500000   0.4330127  -0.2906977), wk =   0.0069444
        k(   69) = (   0.2500000   0.5292377   0.0000000), wk =   0.0138889
        k(   70) = (   0.2500000   0.5292377   0.0968992), wk =   0.0277778
        k(   71) = (   0.2500000   0.5292377   0.1937984), wk =   0.0277778
        k(   72) = (   0.2500000   0.5292377  -0.2906977), wk =   0.0138889
        k(   73) = (   0.3333333   0.5773503   0.0000000), wk =   0.0023148
        k(   74) = (   0.3333333   0.5773503   0.0968992), wk =   0.0046296
        k(   75) = (   0.3333333   0.5773503   0.1937984), wk =   0.0046296
        k(   76) = (   0.3333333   0.5773503  -0.2906977), wk =   0.0023148

     Dense  grid:    10235 G-vectors     FFT dimensions: (  24,  24,  48)

     Smooth grid:     3407 G-vectors     FFT dimensions: (  18,  18,  30)

     Estimated max dynamical RAM per process >      55.95 MB
     Generating pointlists ...
     new r_m :   0.4125 (alat units)  1.9305 (a.u.) for type    1

     Check: negative core charge=   -0.000034

     Initial potential from superposition of free atoms

     starting charge   17.99923, renormalised to   18.00000
     Starting wfcs are   12 randomized atomic wfcs +    1 random wfcs

     total cpu time spent up to now is        3.6 secs

     Self-consistent Calculation

     iteration #  1     ecut=    30.00 Ry     beta= 0.70
     Davidson diagonalization with overlap
     ethr =  1.00E-02,  avg # of iterations =  3.3

     total cpu time spent up to now is       12.7 secs

     total energy              =    -147.84087138 Ry
     Harris-Foulkes estimate   =    -148.17412212 Ry
     estimated scf accuracy    <       1.23474932 Ry

     total magnetization       =     5.17 Bohr mag/cell
     absolute magnetization    =     5.18 Bohr mag/cell

     iteration #  2     ecut=    30.00 Ry     beta= 0.70
     Davidson diagonalization with overlap
     ethr =  6.86E-03,  avg # of iterations =  2.7

     total cpu time spent up to now is       21.4 secs

     total energy              =    -148.06595475 Ry
     Harris-Foulkes estimate   =    -148.77344037 Ry
     estimated scf accuracy    <       1.80925248 Ry

     total magnetization       =     3.25 Bohr mag/cell
     absolute magnetization    =     3.40 Bohr mag/cell

     iteration #  3     ecut=    30.00 Ry     beta= 0.70
     Davidson diagonalization with overlap
     ethr =  6.86E-03,  avg # of iterations =  2.0

     total cpu time spent up to now is       28.8 secs

     total energy              =    -148.41839022 Ry
     Harris-Foulkes estimate   =    -148.38497196 Ry
     estimated scf accuracy    <       0.04006143 Ry

     total magnetization       =     3.72 Bohr mag/cell
     absolute magnetization    =     3.96 Bohr mag/cell

     iteration #  4     ecut=    30.00 Ry     beta= 0.70
     Davidson diagonalization with overlap
     ethr =  2.23E-04,  avg # of iterations =  2.0

     total cpu time spent up to now is       35.9 secs

     total energy              =    -148.42888585 Ry
     Harris-Foulkes estimate   =    -148.42871047 Ry
     estimated scf accuracy    <       0.00012261 Ry

     total magnetization       =     3.39 Bohr mag/cell
     absolute magnetization    =     3.67 Bohr mag/cell

     iteration #  5     ecut=    30.00 Ry     beta= 0.70
     Davidson diagonalization with overlap
     ethr =  6.81E-07,  avg # of iterations =  3.9

     total cpu time spent up to now is       47.2 secs

     total energy              =    -148.42913806 Ry
     Harris-Foulkes estimate   =    -148.42913035 Ry
     estimated scf accuracy    <       0.00003063 Ry

     total magnetization       =     3.40 Bohr mag/cell
     absolute magnetization    =     3.66 Bohr mag/cell

     iteration #  6     ecut=    30.00 Ry     beta= 0.70
     Davidson diagonalization with overlap
     ethr =  1.70E-07,  avg # of iterations =  2.0

     total cpu time spent up to now is       54.9 secs

     total energy              =    -148.42915003 Ry
     Harris-Foulkes estimate   =    -148.42915170 Ry
     estimated scf accuracy    <       0.00000595 Ry

     total magnetization       =     3.40 Bohr mag/cell
     absolute magnetization    =     3.65 Bohr mag/cell

     iteration #  7     ecut=    30.00 Ry     beta= 0.70
     Davidson diagonalization with overlap
     ethr =  3.31E-08,  avg # of iterations =  1.5

     total cpu time spent up to now is       62.0 secs

     total energy              =    -148.42915117 Ry
     Harris-Foulkes estimate   =    -148.42915108 Ry
     estimated scf accuracy    <       0.00000005 Ry

     total magnetization       =     3.40 Bohr mag/cell
     absolute magnetization    =     3.65 Bohr mag/cell

     iteration #  8     ecut=    30.00 Ry     beta= 0.70
     Davidson diagonalization with overlap
     ethr =  2.63E-10,  avg # of iterations =  3.1

     total cpu time spent up to now is       72.1 secs

     total energy              =    -148.42915123 Ry
     Harris-Foulkes estimate   =    -148.42915124 Ry
     estimated scf accuracy    <       0.00000001 Ry

     total magnetization       =     3.40 Bohr mag/cell
     absolute magnetization    =     3.65 Bohr mag/cell

     iteration #  9     ecut=    30.00 Ry     beta= 0.70
     Davidson diagonalization with overlap
     ethr =  7.53E-11,  avg # of iterations =  2.2

     Magnetic moment per site:
     atom:    1    charge:    7.5960    magn:    1.7589    constr:    0.0000
     atom:    2    charge:    7.5960    magn:    1.7589    constr:    0.0000

     total cpu time spent up to now is       79.6 secs

     End of self-consistent calculation

     Number of k-points >= 100: set verbosity='high' to print the bands.

     the Fermi energy is    13.1054 ev

!    total energy              =    -148.42915124 Ry
     Harris-Foulkes estimate   =    -148.42915124 Ry
     estimated scf accuracy    <          2.2E-09 Ry

     The total energy is the sum of the following terms:

     one-electron contribution =       4.56559642 Ry
     hartree contribution      =      22.02877830 Ry
     xc contribution           =     -64.77784838 Ry
     ewald contribution        =    -110.25145619 Ry
     smearing contrib. (-TS)   =       0.00577861 Ry

     total magnetization       =     3.40 Bohr mag/cell
     absolute magnetization    =     3.65 Bohr mag/cell

     convergence has been achieved in   9 iterations

     Forces acting on atoms (cartesian axes, Ry/au):

     atom    1 type  1   force =     0.00000000    0.00000000    0.00000000
     atom    2 type  1   force =     0.00000000    0.00000000    0.00000000

     Total force =     0.000000     Total SCF correction =     0.000000


     Computing stress (Cartesian axis) and pressure

          total   stress  (Ry/bohr**3)                   (kbar)     P= -230.88
  -0.00128146  -0.00000000   0.00000000       -188.51     -0.00      0.00
  -0.00000000  -0.00128146   0.00000000         -0.00   -188.51      0.00
   0.00000000   0.00000000  -0.00214563          0.00      0.00   -315.63


     Writing output data file Co.HCP.save/

     init_run     :      3.24s CPU      3.36s WALL (       1 calls)
     electrons    :     74.76s CPU     75.99s WALL (       1 calls)
     forces       :      1.13s CPU      1.13s WALL (       1 calls)
     stress       :      1.92s CPU      1.93s WALL (       1 calls)

     Called by init_run:
     wfcinit      :      2.28s CPU      2.37s WALL (       1 calls)
     potinit      :      0.07s CPU      0.08s WALL (       1 calls)
     hinit0       :      0.74s CPU      0.76s WALL (       1 calls)

     Called by electrons:
     c_bands      :     61.75s CPU     62.72s WALL (       9 calls)
     sum_band     :     11.56s CPU     11.81s WALL (       9 calls)
     v_of_rho     :      0.23s CPU      0.23s WALL (      10 calls)
     newd         :      1.27s CPU      1.29s WALL (      10 calls)
     mix_rho      :      0.05s CPU      0.05s WALL (       9 calls)

     Called by c_bands:
     init_us_2    :      0.96s CPU      0.98s WALL (    3192 calls)
     cegterg      :     59.86s CPU     60.80s WALL (    1368 calls)

     Called by sum_band:
     sum_band:bec :      0.12s CPU      0.13s WALL (    1368 calls)
     addusdens    :      1.94s CPU      1.97s WALL (       9 calls)

     Called by *egterg:
     h_psi        :     44.81s CPU     45.57s WALL (    4965 calls)
     s_psi        :      3.86s CPU      3.93s WALL (    4965 calls)
     g_psi        :      0.10s CPU      0.10s WALL (    3445 calls)
     cdiaghg      :      3.79s CPU      3.85s WALL (    4813 calls)

     Called by h_psi:
     h_psi:pot    :     44.72s CPU     45.48s WALL (    4965 calls)
     h_psi:calbec :      4.27s CPU      4.35s WALL (    4965 calls)
     vloc_psi     :     36.61s CPU     37.24s WALL (    4965 calls)
     add_vuspsi   :      3.81s CPU      3.87s WALL (    4965 calls)

     General routines
     calbec       :      6.57s CPU      6.69s WALL (    7093 calls)
     fft          :      0.14s CPU      0.15s WALL (     114 calls)
     ffts         :      0.05s CPU      0.05s WALL (      38 calls)
     fftw         :     38.99s CPU     39.74s WALL (  116250 calls)
     interpolate  :      0.06s CPU      0.06s WALL (      20 calls)

     Parallel routines

     PWSCF        :   1m21.40s CPU   1m22.81s WALL


   This run was terminated on:  19:32:21  19Feb2020            

=------------------------------------------------------------------------------=
   JOB DONE.
=------------------------------------------------------------------------------=
