     Message from routine get_command_line:
     unexpected argument # 2     :-input

     Program PWSCF v.6.4.1 starts on 19Feb2020 at 17:37:38 

     This program is part of the open-source Quantum ESPRESSO suite
     for quantum simulation of materials; please cite
         "P. Giannozzi et al., J. Phys.:Condens. Matter 21 395502 (2009);
         "P. Giannozzi et al., J. Phys.:Condens. Matter 29 465901 (2017);
          URL http://www.quantum-espresso.org", 
     in publications or presentations arising from this work. More details at
     http://www.quantum-espresso.org/quote

     Parallel version (MPI), running on     1 processors

     MPI processes distributed on     1 nodes
     Waiting for input...
     Reading input from standard input

     Current dimensions of program PWSCF are:
     Max number of different atomic species (ntypx) = 10
     Max number of k-points (npk) =  40000
     Max angular momentum in pseudopotentials (lmaxx) =  3
               file Co.pz-nd-rrkjus.UPF: wavefunction(s)  4S 3D renormalized

     Subspace diagonalization in iterative solution of the eigenvalue problem:
     a serial algorithm will be used


     G-vector sticks info
     --------------------
     sticks:   dense  smooth     PW     G-vecs:    dense   smooth      PW
     Sum         361     163     61                 8411     2803     591



     bravais-lattice index     =            4
     lattice parameter (alat)  =       4.5400  a.u.
     unit-cell volume          =     126.4220 (a.u.)^3
     number of atoms/cell      =            2
     number of atomic types    =            1
     number of electrons       =        18.00
     number of Kohn-Sham states=           13
     kinetic-energy cutoff     =      30.0000  Ry
     charge density cutoff     =     250.0000  Ry
     convergence threshold     =      1.0E-08
     mixing beta               =       0.7000
     number of iterations used =            8  plain     mixing
     Exchange-correlation      =  SLA  PZ   NOGX NOGC ( 1  1  0  0 0 0)

     celldm(1)=   4.540000  celldm(2)=   0.000000  celldm(3)=   1.560000
     celldm(4)=   0.000000  celldm(5)=   0.000000  celldm(6)=   0.000000

     crystal axes: (cart. coord. in units of alat)
               a(1) = (   1.000000   0.000000   0.000000 )  
               a(2) = (  -0.500000   0.866025   0.000000 )  
               a(3) = (   0.000000   0.000000   1.560000 )  

     reciprocal axes: (cart. coord. in units 2 pi/alat)
               b(1) = (  1.000000  0.577350 -0.000000 )  
               b(2) = (  0.000000  1.154701  0.000000 )  
               b(3) = (  0.000000 -0.000000  0.641026 )  


     PseudoPot. # 1 for Co read from file:
     ./Co.pz-nd-rrkjus.UPF
     MD5 check sum: c80159f6ca3a93d3df3cfc6468bb3c3d
     Pseudo is Ultrasoft + core correction, Zval =  9.0
     Generated by new atomic code, or converted to UPF format
     Using radial grid of  961 points,  6 beta functions with: 
                l(1) =   0
                l(2) =   0
                l(3) =   1
                l(4) =   1
                l(5) =   2
                l(6) =   2
     Q(r) pseudized with 0 coefficients 


     atomic species   valence    mass     pseudopotential
        Co             9.00    58.93300     Co( 1.00)

     Starting magnetic structure 
     atomic species   magnetization
        Co           0.700

     24 Sym. Ops., with inversion, found (12 have fractional translation)



   Cartesian axes

     site n.     atom                  positions (alat units)
         1           Co  tau(   1) = (  -0.0000000   0.5773503   0.3900000  )
         2           Co  tau(   2) = (   0.5000000   0.2886751   1.1700000  )

     number of k points=    76  Marzari-Vanderbilt smearing, width (Ry)=  0.0300
                       cart. coord. in units 2pi/alat
        k(    1) = (   0.0000000   0.0000000   0.0000000), wk =   0.0011574
        k(    2) = (   0.0000000   0.0000000   0.1068376), wk =   0.0023148
        k(    3) = (   0.0000000   0.0000000   0.2136752), wk =   0.0023148
        k(    4) = (   0.0000000   0.0000000  -0.3205128), wk =   0.0011574
        k(    5) = (   0.0000000   0.0962250   0.0000000), wk =   0.0069444
        k(    6) = (   0.0000000   0.0962250   0.1068376), wk =   0.0138889
        k(    7) = (   0.0000000   0.0962250   0.2136752), wk =   0.0138889
        k(    8) = (   0.0000000   0.0962250  -0.3205128), wk =   0.0069444
        k(    9) = (   0.0000000   0.1924501   0.0000000), wk =   0.0069444
        k(   10) = (   0.0000000   0.1924501   0.1068376), wk =   0.0138889
        k(   11) = (   0.0000000   0.1924501   0.2136752), wk =   0.0138889
        k(   12) = (   0.0000000   0.1924501  -0.3205128), wk =   0.0069444
        k(   13) = (   0.0000000   0.2886751   0.0000000), wk =   0.0069444
        k(   14) = (   0.0000000   0.2886751   0.1068376), wk =   0.0138889
        k(   15) = (   0.0000000   0.2886751   0.2136752), wk =   0.0138889
        k(   16) = (   0.0000000   0.2886751  -0.3205128), wk =   0.0069444
        k(   17) = (   0.0000000   0.3849002   0.0000000), wk =   0.0069444
        k(   18) = (   0.0000000   0.3849002   0.1068376), wk =   0.0138889
        k(   19) = (   0.0000000   0.3849002   0.2136752), wk =   0.0138889
        k(   20) = (   0.0000000   0.3849002  -0.3205128), wk =   0.0069444
        k(   21) = (   0.0000000   0.4811252   0.0000000), wk =   0.0069444
        k(   22) = (   0.0000000   0.4811252   0.1068376), wk =   0.0138889
        k(   23) = (   0.0000000   0.4811252   0.2136752), wk =   0.0138889
        k(   24) = (   0.0000000   0.4811252  -0.3205128), wk =   0.0069444
        k(   25) = (   0.0000000  -0.5773503   0.0000000), wk =   0.0034722
        k(   26) = (   0.0000000  -0.5773503   0.1068376), wk =   0.0069444
        k(   27) = (   0.0000000  -0.5773503   0.2136752), wk =   0.0069444
        k(   28) = (   0.0000000  -0.5773503  -0.3205128), wk =   0.0034722
        k(   29) = (   0.0833333   0.1443376   0.0000000), wk =   0.0069444
        k(   30) = (   0.0833333   0.1443376   0.1068376), wk =   0.0138889
        k(   31) = (   0.0833333   0.1443376   0.2136752), wk =   0.0138889
        k(   32) = (   0.0833333   0.1443376  -0.3205128), wk =   0.0069444
        k(   33) = (   0.0833333   0.2405626   0.0000000), wk =   0.0138889
        k(   34) = (   0.0833333   0.2405626   0.1068376), wk =   0.0277778
        k(   35) = (   0.0833333   0.2405626   0.2136752), wk =   0.0277778
        k(   36) = (   0.0833333   0.2405626  -0.3205128), wk =   0.0138889
        k(   37) = (   0.0833333   0.3367877   0.0000000), wk =   0.0138889
        k(   38) = (   0.0833333   0.3367877   0.1068376), wk =   0.0277778
        k(   39) = (   0.0833333   0.3367877   0.2136752), wk =   0.0277778
        k(   40) = (   0.0833333   0.3367877  -0.3205128), wk =   0.0138889
        k(   41) = (   0.0833333   0.4330127   0.0000000), wk =   0.0138889
        k(   42) = (   0.0833333   0.4330127   0.1068376), wk =   0.0277778
        k(   43) = (   0.0833333   0.4330127   0.2136752), wk =   0.0277778
        k(   44) = (   0.0833333   0.4330127  -0.3205128), wk =   0.0138889
        k(   45) = (   0.0833333   0.5292377   0.0000000), wk =   0.0138889
        k(   46) = (   0.0833333   0.5292377   0.1068376), wk =   0.0277778
        k(   47) = (   0.0833333   0.5292377   0.2136752), wk =   0.0277778
        k(   48) = (   0.0833333   0.5292377  -0.3205128), wk =   0.0138889
        k(   49) = (   0.1666667   0.2886751   0.0000000), wk =   0.0069444
        k(   50) = (   0.1666667   0.2886751   0.1068376), wk =   0.0138889
        k(   51) = (   0.1666667   0.2886751   0.2136752), wk =   0.0138889
        k(   52) = (   0.1666667   0.2886751  -0.3205128), wk =   0.0069444
        k(   53) = (   0.1666667   0.3849002   0.0000000), wk =   0.0138889
        k(   54) = (   0.1666667   0.3849002   0.1068376), wk =   0.0277778
        k(   55) = (   0.1666667   0.3849002   0.2136752), wk =   0.0277778
        k(   56) = (   0.1666667   0.3849002  -0.3205128), wk =   0.0138889
        k(   57) = (   0.1666667   0.4811252   0.0000000), wk =   0.0138889
        k(   58) = (   0.1666667   0.4811252   0.1068376), wk =   0.0277778
        k(   59) = (   0.1666667   0.4811252   0.2136752), wk =   0.0277778
        k(   60) = (   0.1666667   0.4811252  -0.3205128), wk =   0.0138889
        k(   61) = (   0.1666667   0.5773503   0.0000000), wk =   0.0069444
        k(   62) = (   0.1666667   0.5773503   0.1068376), wk =   0.0138889
        k(   63) = (   0.1666667   0.5773503   0.2136752), wk =   0.0138889
        k(   64) = (   0.1666667   0.5773503  -0.3205128), wk =   0.0069444
        k(   65) = (   0.2500000   0.4330127   0.0000000), wk =   0.0069444
        k(   66) = (   0.2500000   0.4330127   0.1068376), wk =   0.0138889
        k(   67) = (   0.2500000   0.4330127   0.2136752), wk =   0.0138889
        k(   68) = (   0.2500000   0.4330127  -0.3205128), wk =   0.0069444
        k(   69) = (   0.2500000   0.5292377   0.0000000), wk =   0.0138889
        k(   70) = (   0.2500000   0.5292377   0.1068376), wk =   0.0277778
        k(   71) = (   0.2500000   0.5292377   0.2136752), wk =   0.0277778
        k(   72) = (   0.2500000   0.5292377  -0.3205128), wk =   0.0138889
        k(   73) = (   0.3333333   0.5773503   0.0000000), wk =   0.0023148
        k(   74) = (   0.3333333   0.5773503   0.1068376), wk =   0.0046296
        k(   75) = (   0.3333333   0.5773503   0.2136752), wk =   0.0046296
        k(   76) = (   0.3333333   0.5773503  -0.3205128), wk =   0.0023148

     Dense  grid:     8411 G-vectors     FFT dimensions: (  24,  24,  36)

     Smooth grid:     2803 G-vectors     FFT dimensions: (  15,  15,  30)

     Estimated max dynamical RAM per process >      45.99 MB
     Generating pointlists ...
     new r_m :   0.4003 (alat units)  1.8174 (a.u.) for type    1

     Check: negative core charge=   -0.000022

     Initial potential from superposition of free atoms

     starting charge   17.99923, renormalised to   18.00000
     Starting wfcs are   12 randomized atomic wfcs +    1 random wfcs

     total cpu time spent up to now is        2.4 secs

     Self-consistent Calculation

     iteration #  1     ecut=    30.00 Ry     beta= 0.70
     Davidson diagonalization with overlap
     ethr =  1.00E-02,  avg # of iterations =  3.4

     total cpu time spent up to now is        7.7 secs

     total energy              =    -147.96277466 Ry
     Harris-Foulkes estimate   =    -148.09549342 Ry
     estimated scf accuracy    <       1.12514798 Ry

     total magnetization       =     4.72 Bohr mag/cell
     absolute magnetization    =     4.72 Bohr mag/cell

     iteration #  2     ecut=    30.00 Ry     beta= 0.70
     Davidson diagonalization with overlap
     ethr =  6.25E-03,  avg # of iterations =  2.3

     total cpu time spent up to now is       12.5 secs

     total energy              =    -148.19317184 Ry
     Harris-Foulkes estimate   =    -148.60805354 Ry
     estimated scf accuracy    <       1.02632008 Ry

     total magnetization       =     3.29 Bohr mag/cell
     absolute magnetization    =     3.42 Bohr mag/cell

     iteration #  3     ecut=    30.00 Ry     beta= 0.70
     Davidson diagonalization with overlap
     ethr =  5.70E-03,  avg # of iterations =  2.0

     total cpu time spent up to now is       16.5 secs

     total energy              =    -148.42800821 Ry
     Harris-Foulkes estimate   =    -148.40028463 Ry
     estimated scf accuracy    <       0.04425321 Ry

     total magnetization       =     3.46 Bohr mag/cell
     absolute magnetization    =     3.64 Bohr mag/cell

     iteration #  4     ecut=    30.00 Ry     beta= 0.70
     Davidson diagonalization with overlap
     ethr =  2.46E-04,  avg # of iterations =  1.9

     total cpu time spent up to now is       20.4 secs

     total energy              =    -148.43946788 Ry
     Harris-Foulkes estimate   =    -148.43921226 Ry
     estimated scf accuracy    <       0.00053604 Ry

     total magnetization       =     2.96 Bohr mag/cell
     absolute magnetization    =     3.21 Bohr mag/cell

     iteration #  5     ecut=    30.00 Ry     beta= 0.70
     Davidson diagonalization with overlap
     ethr =  2.98E-06,  avg # of iterations =  3.2

     total cpu time spent up to now is       26.1 secs

     total energy              =    -148.43927361 Ry
     Harris-Foulkes estimate   =    -148.44002773 Ry
     estimated scf accuracy    <       0.00026878 Ry

     total magnetization       =     2.86 Bohr mag/cell
     absolute magnetization    =     3.08 Bohr mag/cell

     iteration #  6     ecut=    30.00 Ry     beta= 0.70
     Davidson diagonalization with overlap
     ethr =  1.49E-06,  avg # of iterations =  2.2

     total cpu time spent up to now is       31.1 secs

     total energy              =    -148.44025662 Ry
     Harris-Foulkes estimate   =    -148.44040510 Ry
     estimated scf accuracy    <       0.00023775 Ry

     total magnetization       =     2.64 Bohr mag/cell
     absolute magnetization    =     2.82 Bohr mag/cell

     iteration #  7     ecut=    30.00 Ry     beta= 0.70
     Davidson diagonalization with overlap
     ethr =  1.32E-06,  avg # of iterations =  1.6

     total cpu time spent up to now is       35.2 secs

     total energy              =    -148.44037484 Ry
     Harris-Foulkes estimate   =    -148.44037469 Ry
     estimated scf accuracy    <       0.00000114 Ry

     total magnetization       =     2.70 Bohr mag/cell
     absolute magnetization    =     2.88 Bohr mag/cell

     iteration #  8     ecut=    30.00 Ry     beta= 0.70
     Davidson diagonalization with overlap
     ethr =  6.32E-09,  avg # of iterations =  3.1

     total cpu time spent up to now is       41.1 secs

     total energy              =    -148.44037614 Ry
     Harris-Foulkes estimate   =    -148.44037614 Ry
     estimated scf accuracy    <       0.00000009 Ry

     total magnetization       =     2.70 Bohr mag/cell
     absolute magnetization    =     2.88 Bohr mag/cell

     iteration #  9     ecut=    30.00 Ry     beta= 0.70
     Davidson diagonalization with overlap
     ethr =  4.85E-10,  avg # of iterations =  2.0

     Magnetic moment per site:
     atom:    1    charge:    7.4805    magn:    1.3901    constr:    0.0000
     atom:    2    charge:    7.4805    magn:    1.3901    constr:    0.0000

     total cpu time spent up to now is       45.4 secs

     End of self-consistent calculation

     Number of k-points >= 100: set verbosity='high' to print the bands.

     the Fermi energy is    16.6247 ev

!    total energy              =    -148.44037623 Ry
     Harris-Foulkes estimate   =    -148.44037623 Ry
     estimated scf accuracy    <          9.7E-09 Ry

     The total energy is the sum of the following terms:

     one-electron contribution =      14.91272109 Ry
     hartree contribution      =      19.11847071 Ry
     xc contribution           =     -65.05615782 Ry
     ewald contribution        =    -117.42039990 Ry
     smearing contrib. (-TS)   =       0.00498969 Ry

     total magnetization       =     2.70 Bohr mag/cell
     absolute magnetization    =     2.88 Bohr mag/cell

     convergence has been achieved in   9 iterations

     Forces acting on atoms (cartesian axes, Ry/au):

     atom    1 type  1   force =     0.00000000    0.00000000    0.00000000
     atom    2 type  1   force =    -0.00000000   -0.00000000    0.00000000

     Total force =     0.000000     Total SCF correction =     0.000000


     Computing stress (Cartesian axis) and pressure

          total   stress  (Ry/bohr**3)                   (kbar)     P=  177.50
   0.00090482  -0.00000000   0.00000000        133.10     -0.00      0.00
  -0.00000000   0.00090482   0.00000000         -0.00    133.10      0.00
   0.00000000   0.00000000   0.00181024          0.00      0.00    266.30


     Writing output data file Co.HCP.save/

     init_run     :      2.07s CPU      2.16s WALL (       1 calls)
     electrons    :     42.37s CPU     42.99s WALL (       1 calls)
     forces       :      0.96s CPU      0.96s WALL (       1 calls)
     stress       :      1.63s CPU      1.63s WALL (       1 calls)

     Called by init_run:
     wfcinit      :      1.23s CPU      1.26s WALL (       1 calls)
     potinit      :      0.05s CPU      0.05s WALL (       1 calls)
     hinit0       :      0.70s CPU      0.72s WALL (       1 calls)

     Called by electrons:
     c_bands      :     34.98s CPU     35.49s WALL (       9 calls)
     sum_band     :      6.21s CPU      6.32s WALL (       9 calls)
     v_of_rho     :      0.18s CPU      0.18s WALL (      10 calls)
     newd         :      1.02s CPU      1.05s WALL (      10 calls)
     mix_rho      :      0.05s CPU      0.05s WALL (       9 calls)

     Called by c_bands:
     init_us_2    :      0.78s CPU      0.79s WALL (    3192 calls)
     cegterg      :     33.41s CPU     33.89s WALL (    1368 calls)

     Called by sum_band:
     sum_band:bec :      0.13s CPU      0.13s WALL (    1368 calls)
     addusdens    :      1.64s CPU      1.64s WALL (       9 calls)

     Called by *egterg:
     h_psi        :     19.91s CPU     20.27s WALL (    4810 calls)
     s_psi        :      3.18s CPU      3.23s WALL (    4810 calls)
     g_psi        :      0.08s CPU      0.08s WALL (    3290 calls)
     cdiaghg      :      3.54s CPU      3.59s WALL (    4658 calls)

     Called by h_psi:
     h_psi:pot    :     19.84s CPU     20.20s WALL (    4810 calls)
     h_psi:calbec :      3.51s CPU      3.57s WALL (    4810 calls)
     vloc_psi     :     13.15s CPU     13.40s WALL (    4810 calls)
     add_vuspsi   :      3.15s CPU      3.20s WALL (    4810 calls)

     General routines
     calbec       :      5.45s CPU      5.55s WALL (    6938 calls)
     fft          :      0.13s CPU      0.13s WALL (     114 calls)
     ffts         :      0.02s CPU      0.02s WALL (      38 calls)
     fftw         :     12.31s CPU     12.56s WALL (  114724 calls)
     interpolate  :      0.03s CPU      0.03s WALL (      20 calls)

     Parallel routines

     PWSCF        :     47.38s CPU     48.25s WALL


   This run was terminated on:  17:38:26  19Feb2020            

=------------------------------------------------------------------------------=
   JOB DONE.
=------------------------------------------------------------------------------=
