     Message from routine get_command_line:
     unexpected argument # 2     :-input

     Program PWSCF v.6.4.1 starts on 19Feb2020 at 17:12:46 

     This program is part of the open-source Quantum ESPRESSO suite
     for quantum simulation of materials; please cite
         "P. Giannozzi et al., J. Phys.:Condens. Matter 21 395502 (2009);
         "P. Giannozzi et al., J. Phys.:Condens. Matter 29 465901 (2017);
          URL http://www.quantum-espresso.org", 
     in publications or presentations arising from this work. More details at
     http://www.quantum-espresso.org/quote

     Parallel version (MPI), running on     1 processors

     MPI processes distributed on     1 nodes
     Waiting for input...
     Reading input from standard input

     Current dimensions of program PWSCF are:
     Max number of different atomic species (ntypx) = 10
     Max number of k-points (npk) =  40000
     Max angular momentum in pseudopotentials (lmaxx) =  3
               file Co.pz-nd-rrkjus.UPF: wavefunction(s)  4S 3D renormalized

     Subspace diagonalization in iterative solution of the eigenvalue problem:
     a serial algorithm will be used


     G-vector sticks info
     --------------------
     sticks:   dense  smooth     PW     G-vecs:    dense   smooth      PW
     Sum         349     163     61                 7893     2621     579



     bravais-lattice index     =            4
     lattice parameter (alat)  =       4.5000  a.u.
     unit-cell volume          =     118.3748 (a.u.)^3
     number of atoms/cell      =            2
     number of atomic types    =            1
     number of electrons       =        18.00
     number of Kohn-Sham states=           13
     kinetic-energy cutoff     =      30.0000  Ry
     charge density cutoff     =     250.0000  Ry
     convergence threshold     =      1.0E-08
     mixing beta               =       0.7000
     number of iterations used =            8  plain     mixing
     Exchange-correlation      =  SLA  PZ   NOGX NOGC ( 1  1  0  0 0 0)

     celldm(1)=   4.500000  celldm(2)=   0.000000  celldm(3)=   1.500000
     celldm(4)=   0.000000  celldm(5)=   0.000000  celldm(6)=   0.000000

     crystal axes: (cart. coord. in units of alat)
               a(1) = (   1.000000   0.000000   0.000000 )  
               a(2) = (  -0.500000   0.866025   0.000000 )  
               a(3) = (   0.000000   0.000000   1.500000 )  

     reciprocal axes: (cart. coord. in units 2 pi/alat)
               b(1) = (  1.000000  0.577350 -0.000000 )  
               b(2) = (  0.000000  1.154701  0.000000 )  
               b(3) = (  0.000000 -0.000000  0.666667 )  


     PseudoPot. # 1 for Co read from file:
     ./Co.pz-nd-rrkjus.UPF
     MD5 check sum: c80159f6ca3a93d3df3cfc6468bb3c3d
     Pseudo is Ultrasoft + core correction, Zval =  9.0
     Generated by new atomic code, or converted to UPF format
     Using radial grid of  961 points,  6 beta functions with: 
                l(1) =   0
                l(2) =   0
                l(3) =   1
                l(4) =   1
                l(5) =   2
                l(6) =   2
     Q(r) pseudized with 0 coefficients 


     atomic species   valence    mass     pseudopotential
        Co             9.00    58.93300     Co( 1.00)

     Starting magnetic structure 
     atomic species   magnetization
        Co           0.700

     24 Sym. Ops., with inversion, found (12 have fractional translation)



   Cartesian axes

     site n.     atom                  positions (alat units)
         1           Co  tau(   1) = (  -0.0000000   0.5773503   0.3750000  )
         2           Co  tau(   2) = (   0.5000000   0.2886751   1.1250000  )

     number of k points=    76  Marzari-Vanderbilt smearing, width (Ry)=  0.0300
                       cart. coord. in units 2pi/alat
        k(    1) = (   0.0000000   0.0000000   0.0000000), wk =   0.0011574
        k(    2) = (   0.0000000   0.0000000   0.1111111), wk =   0.0023148
        k(    3) = (   0.0000000   0.0000000   0.2222222), wk =   0.0023148
        k(    4) = (   0.0000000   0.0000000  -0.3333333), wk =   0.0011574
        k(    5) = (   0.0000000   0.0962250   0.0000000), wk =   0.0069444
        k(    6) = (   0.0000000   0.0962250   0.1111111), wk =   0.0138889
        k(    7) = (   0.0000000   0.0962250   0.2222222), wk =   0.0138889
        k(    8) = (   0.0000000   0.0962250  -0.3333333), wk =   0.0069444
        k(    9) = (   0.0000000   0.1924501   0.0000000), wk =   0.0069444
        k(   10) = (   0.0000000   0.1924501   0.1111111), wk =   0.0138889
        k(   11) = (   0.0000000   0.1924501   0.2222222), wk =   0.0138889
        k(   12) = (   0.0000000   0.1924501  -0.3333333), wk =   0.0069444
        k(   13) = (   0.0000000   0.2886751   0.0000000), wk =   0.0069444
        k(   14) = (   0.0000000   0.2886751   0.1111111), wk =   0.0138889
        k(   15) = (   0.0000000   0.2886751   0.2222222), wk =   0.0138889
        k(   16) = (   0.0000000   0.2886751  -0.3333333), wk =   0.0069444
        k(   17) = (   0.0000000   0.3849002   0.0000000), wk =   0.0069444
        k(   18) = (   0.0000000   0.3849002   0.1111111), wk =   0.0138889
        k(   19) = (   0.0000000   0.3849002   0.2222222), wk =   0.0138889
        k(   20) = (   0.0000000   0.3849002  -0.3333333), wk =   0.0069444
        k(   21) = (   0.0000000   0.4811252   0.0000000), wk =   0.0069444
        k(   22) = (   0.0000000   0.4811252   0.1111111), wk =   0.0138889
        k(   23) = (   0.0000000   0.4811252   0.2222222), wk =   0.0138889
        k(   24) = (   0.0000000   0.4811252  -0.3333333), wk =   0.0069444
        k(   25) = (   0.0000000  -0.5773503   0.0000000), wk =   0.0034722
        k(   26) = (   0.0000000  -0.5773503   0.1111111), wk =   0.0069444
        k(   27) = (   0.0000000  -0.5773503   0.2222222), wk =   0.0069444
        k(   28) = (   0.0000000  -0.5773503  -0.3333333), wk =   0.0034722
        k(   29) = (   0.0833333   0.1443376   0.0000000), wk =   0.0069444
        k(   30) = (   0.0833333   0.1443376   0.1111111), wk =   0.0138889
        k(   31) = (   0.0833333   0.1443376   0.2222222), wk =   0.0138889
        k(   32) = (   0.0833333   0.1443376  -0.3333333), wk =   0.0069444
        k(   33) = (   0.0833333   0.2405626   0.0000000), wk =   0.0138889
        k(   34) = (   0.0833333   0.2405626   0.1111111), wk =   0.0277778
        k(   35) = (   0.0833333   0.2405626   0.2222222), wk =   0.0277778
        k(   36) = (   0.0833333   0.2405626  -0.3333333), wk =   0.0138889
        k(   37) = (   0.0833333   0.3367877   0.0000000), wk =   0.0138889
        k(   38) = (   0.0833333   0.3367877   0.1111111), wk =   0.0277778
        k(   39) = (   0.0833333   0.3367877   0.2222222), wk =   0.0277778
        k(   40) = (   0.0833333   0.3367877  -0.3333333), wk =   0.0138889
        k(   41) = (   0.0833333   0.4330127   0.0000000), wk =   0.0138889
        k(   42) = (   0.0833333   0.4330127   0.1111111), wk =   0.0277778
        k(   43) = (   0.0833333   0.4330127   0.2222222), wk =   0.0277778
        k(   44) = (   0.0833333   0.4330127  -0.3333333), wk =   0.0138889
        k(   45) = (   0.0833333   0.5292377   0.0000000), wk =   0.0138889
        k(   46) = (   0.0833333   0.5292377   0.1111111), wk =   0.0277778
        k(   47) = (   0.0833333   0.5292377   0.2222222), wk =   0.0277778
        k(   48) = (   0.0833333   0.5292377  -0.3333333), wk =   0.0138889
        k(   49) = (   0.1666667   0.2886751   0.0000000), wk =   0.0069444
        k(   50) = (   0.1666667   0.2886751   0.1111111), wk =   0.0138889
        k(   51) = (   0.1666667   0.2886751   0.2222222), wk =   0.0138889
        k(   52) = (   0.1666667   0.2886751  -0.3333333), wk =   0.0069444
        k(   53) = (   0.1666667   0.3849002   0.0000000), wk =   0.0138889
        k(   54) = (   0.1666667   0.3849002   0.1111111), wk =   0.0277778
        k(   55) = (   0.1666667   0.3849002   0.2222222), wk =   0.0277778
        k(   56) = (   0.1666667   0.3849002  -0.3333333), wk =   0.0138889
        k(   57) = (   0.1666667   0.4811252   0.0000000), wk =   0.0138889
        k(   58) = (   0.1666667   0.4811252   0.1111111), wk =   0.0277778
        k(   59) = (   0.1666667   0.4811252   0.2222222), wk =   0.0277778
        k(   60) = (   0.1666667   0.4811252  -0.3333333), wk =   0.0138889
        k(   61) = (   0.1666667   0.5773503   0.0000000), wk =   0.0069444
        k(   62) = (   0.1666667   0.5773503   0.1111111), wk =   0.0138889
        k(   63) = (   0.1666667   0.5773503   0.2222222), wk =   0.0138889
        k(   64) = (   0.1666667   0.5773503  -0.3333333), wk =   0.0069444
        k(   65) = (   0.2500000   0.4330127   0.0000000), wk =   0.0069444
        k(   66) = (   0.2500000   0.4330127   0.1111111), wk =   0.0138889
        k(   67) = (   0.2500000   0.4330127   0.2222222), wk =   0.0138889
        k(   68) = (   0.2500000   0.4330127  -0.3333333), wk =   0.0069444
        k(   69) = (   0.2500000   0.5292377   0.0000000), wk =   0.0138889
        k(   70) = (   0.2500000   0.5292377   0.1111111), wk =   0.0277778
        k(   71) = (   0.2500000   0.5292377   0.2222222), wk =   0.0277778
        k(   72) = (   0.2500000   0.5292377  -0.3333333), wk =   0.0138889
        k(   73) = (   0.3333333   0.5773503   0.0000000), wk =   0.0023148
        k(   74) = (   0.3333333   0.5773503   0.1111111), wk =   0.0046296
        k(   75) = (   0.3333333   0.5773503   0.2222222), wk =   0.0046296
        k(   76) = (   0.3333333   0.5773503  -0.3333333), wk =   0.0023148

     Dense  grid:     7893 G-vectors     FFT dimensions: (  24,  24,  36)

     Smooth grid:     2621 G-vectors     FFT dimensions: (  15,  15,  24)

     Estimated max dynamical RAM per process >      43.30 MB
     Generating pointlists ...
     new r_m :   0.3904 (alat units)  1.7569 (a.u.) for type    1

     Check: negative core charge=   -0.000013

     Initial potential from superposition of free atoms

     starting charge   17.99923, renormalised to   18.00000
     Starting wfcs are   12 randomized atomic wfcs +    1 random wfcs

     total cpu time spent up to now is        2.0 secs

     Self-consistent Calculation

     iteration #  1     ecut=    30.00 Ry     beta= 0.70
     Davidson diagonalization with overlap
     ethr =  1.00E-02,  avg # of iterations =  3.5

     total cpu time spent up to now is        6.3 secs

     total energy              =    -147.98648211 Ry
     Harris-Foulkes estimate   =    -148.03384468 Ry
     estimated scf accuracy    <       1.08096673 Ry

     total magnetization       =     4.53 Bohr mag/cell
     absolute magnetization    =     4.53 Bohr mag/cell

     iteration #  2     ecut=    30.00 Ry     beta= 0.70
     Davidson diagonalization with overlap
     ethr =  6.01E-03,  avg # of iterations =  2.2

     total cpu time spent up to now is       10.0 secs

     total energy              =    -148.20653267 Ry
     Harris-Foulkes estimate   =    -148.52978866 Ry
     estimated scf accuracy    <       0.80857938 Ry

     total magnetization       =     3.25 Bohr mag/cell
     absolute magnetization    =     3.38 Bohr mag/cell

     iteration #  3     ecut=    30.00 Ry     beta= 0.70
     Davidson diagonalization with overlap
     ethr =  4.49E-03,  avg # of iterations =  2.0

     total cpu time spent up to now is       13.1 secs

     total energy              =    -148.40352195 Ry
     Harris-Foulkes estimate   =    -148.37979392 Ry
     estimated scf accuracy    <       0.04617234 Ry

     total magnetization       =     3.36 Bohr mag/cell
     absolute magnetization    =     3.52 Bohr mag/cell

     iteration #  4     ecut=    30.00 Ry     beta= 0.70
     Davidson diagonalization with overlap
     ethr =  2.57E-04,  avg # of iterations =  1.6

     total cpu time spent up to now is       16.0 secs

     total energy              =    -148.41677195 Ry
     Harris-Foulkes estimate   =    -148.41601000 Ry
     estimated scf accuracy    <       0.00230718 Ry

     total magnetization       =     2.72 Bohr mag/cell
     absolute magnetization    =     2.95 Bohr mag/cell

     iteration #  5     ecut=    30.00 Ry     beta= 0.70
     Davidson diagonalization with overlap
     ethr =  1.28E-05,  avg # of iterations =  2.3

     total cpu time spent up to now is       19.4 secs

     total energy              =    -148.41782981 Ry
     Harris-Foulkes estimate   =    -148.41740393 Ry
     estimated scf accuracy    <       0.00142920 Ry

     total magnetization       =     2.60 Bohr mag/cell
     absolute magnetization    =     2.81 Bohr mag/cell

     iteration #  6     ecut=    30.00 Ry     beta= 0.70
     Davidson diagonalization with overlap
     ethr =  7.94E-06,  avg # of iterations =  1.6

     total cpu time spent up to now is       22.4 secs

     total energy              =    -148.41865017 Ry
     Harris-Foulkes estimate   =    -148.41874902 Ry
     estimated scf accuracy    <       0.00035093 Ry

     total magnetization       =     2.39 Bohr mag/cell
     absolute magnetization    =     2.57 Bohr mag/cell

     iteration #  7     ecut=    30.00 Ry     beta= 0.70
     Davidson diagonalization with overlap
     ethr =  1.95E-06,  avg # of iterations =  2.4

     total cpu time spent up to now is       26.1 secs

     total energy              =    -148.41925449 Ry
     Harris-Foulkes estimate   =    -148.41931865 Ry
     estimated scf accuracy    <       0.00005167 Ry

     total magnetization       =     2.20 Bohr mag/cell
     absolute magnetization    =     2.35 Bohr mag/cell

     iteration #  8     ecut=    30.00 Ry     beta= 0.70
     Davidson diagonalization with overlap
     ethr =  2.87E-07,  avg # of iterations =  2.5

     total cpu time spent up to now is       29.9 secs

     total energy              =    -148.41939625 Ry
     Harris-Foulkes estimate   =    -148.41942303 Ry
     estimated scf accuracy    <       0.00000888 Ry

     total magnetization       =     2.10 Bohr mag/cell
     absolute magnetization    =     2.24 Bohr mag/cell

     iteration #  9     ecut=    30.00 Ry     beta= 0.70
     Davidson diagonalization with overlap
     ethr =  4.93E-08,  avg # of iterations =  2.7

     total cpu time spent up to now is       33.9 secs

     total energy              =    -148.41942961 Ry
     Harris-Foulkes estimate   =    -148.41943914 Ry
     estimated scf accuracy    <       0.00000121 Ry

     total magnetization       =     2.04 Bohr mag/cell
     absolute magnetization    =     2.18 Bohr mag/cell

     iteration # 10     ecut=    30.00 Ry     beta= 0.70
     Davidson diagonalization with overlap
     ethr =  6.70E-09,  avg # of iterations =  2.8

     total cpu time spent up to now is       38.1 secs

     total energy              =    -148.41943985 Ry
     Harris-Foulkes estimate   =    -148.41943999 Ry
     estimated scf accuracy    <       0.00000073 Ry

     total magnetization       =     2.02 Bohr mag/cell
     absolute magnetization    =     2.15 Bohr mag/cell

     iteration # 11     ecut=    30.00 Ry     beta= 0.70
     Davidson diagonalization with overlap
     ethr =  4.07E-09,  avg # of iterations =  1.5

     total cpu time spent up to now is       41.1 secs

     total energy              =    -148.41943988 Ry
     Harris-Foulkes estimate   =    -148.41944013 Ry
     estimated scf accuracy    <       0.00000008 Ry

     total magnetization       =     2.02 Bohr mag/cell
     absolute magnetization    =     2.15 Bohr mag/cell

     iteration # 12     ecut=    30.00 Ry     beta= 0.70
     Davidson diagonalization with overlap
     ethr =  4.26E-10,  avg # of iterations =  2.3

     Magnetic moment per site:
     atom:    1    charge:    7.3652    magn:    1.0435    constr:    0.0000
     atom:    2    charge:    7.3652    magn:    1.0435    constr:    0.0000

     total cpu time spent up to now is       44.8 secs

     End of self-consistent calculation

     Number of k-points >= 100: set verbosity='high' to print the bands.

     the Fermi energy is    18.1342 ev

!    total energy              =    -148.41944032 Ry
     Harris-Foulkes estimate   =    -148.41944032 Ry
     estimated scf accuracy    <          5.3E-09 Ry

     The total energy is the sum of the following terms:

     one-electron contribution =      18.48438235 Ry
     hartree contribution      =      18.19960782 Ry
     xc contribution           =     -65.15868495 Ry
     ewald contribution        =    -119.94472814 Ry
     smearing contrib. (-TS)   =      -0.00001740 Ry

     total magnetization       =     2.03 Bohr mag/cell
     absolute magnetization    =     2.16 Bohr mag/cell

     convergence has been achieved in  12 iterations

     Forces acting on atoms (cartesian axes, Ry/au):

     atom    1 type  1   force =    -0.00000000    0.00000000    0.00000000
     atom    2 type  1   force =     0.00000000   -0.00000000    0.00000000

     Total force =     0.000000     Total SCF correction =     0.000000


     Computing stress (Cartesian axis) and pressure

          total   stress  (Ry/bohr**3)                   (kbar)     P=  420.18
   0.00215580   0.00000000   0.00000000        317.13      0.00      0.00
   0.00000000   0.00215580   0.00000000          0.00    317.13      0.00
  -0.00000000  -0.00000000   0.00425745         -0.00     -0.00    626.29


     Writing output data file Co.HCP.save/

     init_run     :      1.73s CPU      1.79s WALL (       1 calls)
     electrons    :     42.09s CPU     42.72s WALL (       1 calls)
     forces       :      0.89s CPU      0.90s WALL (       1 calls)
     stress       :      1.42s CPU      1.43s WALL (       1 calls)

     Called by init_run:
     wfcinit      :      0.89s CPU      0.91s WALL (       1 calls)
     potinit      :      0.05s CPU      0.05s WALL (       1 calls)
     hinit0       :      0.69s CPU      0.70s WALL (       1 calls)

     Called by electrons:
     c_bands      :     34.45s CPU     34.99s WALL (      12 calls)
     sum_band     :      6.10s CPU      6.17s WALL (      12 calls)
     v_of_rho     :      0.23s CPU      0.24s WALL (      13 calls)
     newd         :      1.32s CPU      1.36s WALL (      13 calls)
     mix_rho      :      0.07s CPU      0.07s WALL (      12 calls)

     Called by c_bands:
     init_us_2    :      0.91s CPU      0.92s WALL (    4104 calls)
     cegterg      :     32.52s CPU     33.03s WALL (    1824 calls)

     Called by sum_band:
     sum_band:bec :      0.16s CPU      0.17s WALL (    1824 calls)
     addusdens    :      2.07s CPU      2.08s WALL (      12 calls)

     Called by *egterg:
     h_psi        :     16.07s CPU     16.37s WALL (    6135 calls)
     s_psi        :      3.81s CPU      3.88s WALL (    6135 calls)
     g_psi        :      0.10s CPU      0.10s WALL (    4159 calls)
     cdiaghg      :      4.17s CPU      4.22s WALL (    5983 calls)

     Called by h_psi:
     h_psi:pot    :     15.99s CPU     16.28s WALL (    6135 calls)
     h_psi:calbec :      4.30s CPU      4.39s WALL (    6135 calls)
     vloc_psi     :      7.84s CPU      7.97s WALL (    6135 calls)
     add_vuspsi   :      3.81s CPU      3.88s WALL (    6135 calls)

     General routines
     calbec       :      6.46s CPU      6.59s WALL (    8719 calls)
     fft          :      0.16s CPU      0.16s WALL (     147 calls)
     ffts         :      0.02s CPU      0.02s WALL (      50 calls)
     fftw         :      5.86s CPU      5.96s WALL (  148834 calls)
     interpolate  :      0.04s CPU      0.04s WALL (      26 calls)

     Parallel routines

     PWSCF        :     46.49s CPU     47.23s WALL


   This run was terminated on:  17:13:33  19Feb2020            

=------------------------------------------------------------------------------=
   JOB DONE.
=------------------------------------------------------------------------------=
