     Message from routine get_command_line:
     unexpected argument # 2     :-input

     Program PWSCF v.6.4.1 starts on 19Feb2020 at 18:24:59 

     This program is part of the open-source Quantum ESPRESSO suite
     for quantum simulation of materials; please cite
         "P. Giannozzi et al., J. Phys.:Condens. Matter 21 395502 (2009);
         "P. Giannozzi et al., J. Phys.:Condens. Matter 29 465901 (2017);
          URL http://www.quantum-espresso.org", 
     in publications or presentations arising from this work. More details at
     http://www.quantum-espresso.org/quote

     Parallel version (MPI), running on     1 processors

     MPI processes distributed on     1 nodes
     Waiting for input...
     Reading input from standard input

     Current dimensions of program PWSCF are:
     Max number of different atomic species (ntypx) = 10
     Max number of k-points (npk) =  40000
     Max angular momentum in pseudopotentials (lmaxx) =  3
               file Co.pz-nd-rrkjus.UPF: wavefunction(s)  4S 3D renormalized

     Subspace diagonalization in iterative solution of the eigenvalue problem:
     a serial algorithm will be used


     G-vector sticks info
     --------------------
     sticks:   dense  smooth     PW     G-vecs:    dense   smooth      PW
     Sum         367     169     61                 8597     2821     579



     bravais-lattice index     =            4
     lattice parameter (alat)  =       4.6200  a.u.
     unit-cell volume          =     128.0996 (a.u.)^3
     number of atoms/cell      =            2
     number of atomic types    =            1
     number of electrons       =        18.00
     number of Kohn-Sham states=           13
     kinetic-energy cutoff     =      30.0000  Ry
     charge density cutoff     =     250.0000  Ry
     convergence threshold     =      1.0E-08
     mixing beta               =       0.7000
     number of iterations used =            8  plain     mixing
     Exchange-correlation      =  SLA  PZ   NOGX NOGC ( 1  1  0  0 0 0)

     celldm(1)=   4.620000  celldm(2)=   0.000000  celldm(3)=   1.500000
     celldm(4)=   0.000000  celldm(5)=   0.000000  celldm(6)=   0.000000

     crystal axes: (cart. coord. in units of alat)
               a(1) = (   1.000000   0.000000   0.000000 )  
               a(2) = (  -0.500000   0.866025   0.000000 )  
               a(3) = (   0.000000   0.000000   1.500000 )  

     reciprocal axes: (cart. coord. in units 2 pi/alat)
               b(1) = (  1.000000  0.577350 -0.000000 )  
               b(2) = (  0.000000  1.154701  0.000000 )  
               b(3) = (  0.000000 -0.000000  0.666667 )  


     PseudoPot. # 1 for Co read from file:
     ./Co.pz-nd-rrkjus.UPF
     MD5 check sum: c80159f6ca3a93d3df3cfc6468bb3c3d
     Pseudo is Ultrasoft + core correction, Zval =  9.0
     Generated by new atomic code, or converted to UPF format
     Using radial grid of  961 points,  6 beta functions with: 
                l(1) =   0
                l(2) =   0
                l(3) =   1
                l(4) =   1
                l(5) =   2
                l(6) =   2
     Q(r) pseudized with 0 coefficients 


     atomic species   valence    mass     pseudopotential
        Co             9.00    58.93300     Co( 1.00)

     Starting magnetic structure 
     atomic species   magnetization
        Co           0.700

     24 Sym. Ops., with inversion, found (12 have fractional translation)



   Cartesian axes

     site n.     atom                  positions (alat units)
         1           Co  tau(   1) = (  -0.0000000   0.5773503   0.3750000  )
         2           Co  tau(   2) = (   0.5000000   0.2886751   1.1250000  )

     number of k points=    76  Marzari-Vanderbilt smearing, width (Ry)=  0.0300
                       cart. coord. in units 2pi/alat
        k(    1) = (   0.0000000   0.0000000   0.0000000), wk =   0.0011574
        k(    2) = (   0.0000000   0.0000000   0.1111111), wk =   0.0023148
        k(    3) = (   0.0000000   0.0000000   0.2222222), wk =   0.0023148
        k(    4) = (   0.0000000   0.0000000  -0.3333333), wk =   0.0011574
        k(    5) = (   0.0000000   0.0962250   0.0000000), wk =   0.0069444
        k(    6) = (   0.0000000   0.0962250   0.1111111), wk =   0.0138889
        k(    7) = (   0.0000000   0.0962250   0.2222222), wk =   0.0138889
        k(    8) = (   0.0000000   0.0962250  -0.3333333), wk =   0.0069444
        k(    9) = (   0.0000000   0.1924501   0.0000000), wk =   0.0069444
        k(   10) = (   0.0000000   0.1924501   0.1111111), wk =   0.0138889
        k(   11) = (   0.0000000   0.1924501   0.2222222), wk =   0.0138889
        k(   12) = (   0.0000000   0.1924501  -0.3333333), wk =   0.0069444
        k(   13) = (   0.0000000   0.2886751   0.0000000), wk =   0.0069444
        k(   14) = (   0.0000000   0.2886751   0.1111111), wk =   0.0138889
        k(   15) = (   0.0000000   0.2886751   0.2222222), wk =   0.0138889
        k(   16) = (   0.0000000   0.2886751  -0.3333333), wk =   0.0069444
        k(   17) = (   0.0000000   0.3849002   0.0000000), wk =   0.0069444
        k(   18) = (   0.0000000   0.3849002   0.1111111), wk =   0.0138889
        k(   19) = (   0.0000000   0.3849002   0.2222222), wk =   0.0138889
        k(   20) = (   0.0000000   0.3849002  -0.3333333), wk =   0.0069444
        k(   21) = (   0.0000000   0.4811252   0.0000000), wk =   0.0069444
        k(   22) = (   0.0000000   0.4811252   0.1111111), wk =   0.0138889
        k(   23) = (   0.0000000   0.4811252   0.2222222), wk =   0.0138889
        k(   24) = (   0.0000000   0.4811252  -0.3333333), wk =   0.0069444
        k(   25) = (   0.0000000  -0.5773503   0.0000000), wk =   0.0034722
        k(   26) = (   0.0000000  -0.5773503   0.1111111), wk =   0.0069444
        k(   27) = (   0.0000000  -0.5773503   0.2222222), wk =   0.0069444
        k(   28) = (   0.0000000  -0.5773503  -0.3333333), wk =   0.0034722
        k(   29) = (   0.0833333   0.1443376   0.0000000), wk =   0.0069444
        k(   30) = (   0.0833333   0.1443376   0.1111111), wk =   0.0138889
        k(   31) = (   0.0833333   0.1443376   0.2222222), wk =   0.0138889
        k(   32) = (   0.0833333   0.1443376  -0.3333333), wk =   0.0069444
        k(   33) = (   0.0833333   0.2405626   0.0000000), wk =   0.0138889
        k(   34) = (   0.0833333   0.2405626   0.1111111), wk =   0.0277778
        k(   35) = (   0.0833333   0.2405626   0.2222222), wk =   0.0277778
        k(   36) = (   0.0833333   0.2405626  -0.3333333), wk =   0.0138889
        k(   37) = (   0.0833333   0.3367877   0.0000000), wk =   0.0138889
        k(   38) = (   0.0833333   0.3367877   0.1111111), wk =   0.0277778
        k(   39) = (   0.0833333   0.3367877   0.2222222), wk =   0.0277778
        k(   40) = (   0.0833333   0.3367877  -0.3333333), wk =   0.0138889
        k(   41) = (   0.0833333   0.4330127   0.0000000), wk =   0.0138889
        k(   42) = (   0.0833333   0.4330127   0.1111111), wk =   0.0277778
        k(   43) = (   0.0833333   0.4330127   0.2222222), wk =   0.0277778
        k(   44) = (   0.0833333   0.4330127  -0.3333333), wk =   0.0138889
        k(   45) = (   0.0833333   0.5292377   0.0000000), wk =   0.0138889
        k(   46) = (   0.0833333   0.5292377   0.1111111), wk =   0.0277778
        k(   47) = (   0.0833333   0.5292377   0.2222222), wk =   0.0277778
        k(   48) = (   0.0833333   0.5292377  -0.3333333), wk =   0.0138889
        k(   49) = (   0.1666667   0.2886751   0.0000000), wk =   0.0069444
        k(   50) = (   0.1666667   0.2886751   0.1111111), wk =   0.0138889
        k(   51) = (   0.1666667   0.2886751   0.2222222), wk =   0.0138889
        k(   52) = (   0.1666667   0.2886751  -0.3333333), wk =   0.0069444
        k(   53) = (   0.1666667   0.3849002   0.0000000), wk =   0.0138889
        k(   54) = (   0.1666667   0.3849002   0.1111111), wk =   0.0277778
        k(   55) = (   0.1666667   0.3849002   0.2222222), wk =   0.0277778
        k(   56) = (   0.1666667   0.3849002  -0.3333333), wk =   0.0138889
        k(   57) = (   0.1666667   0.4811252   0.0000000), wk =   0.0138889
        k(   58) = (   0.1666667   0.4811252   0.1111111), wk =   0.0277778
        k(   59) = (   0.1666667   0.4811252   0.2222222), wk =   0.0277778
        k(   60) = (   0.1666667   0.4811252  -0.3333333), wk =   0.0138889
        k(   61) = (   0.1666667   0.5773503   0.0000000), wk =   0.0069444
        k(   62) = (   0.1666667   0.5773503   0.1111111), wk =   0.0138889
        k(   63) = (   0.1666667   0.5773503   0.2222222), wk =   0.0138889
        k(   64) = (   0.1666667   0.5773503  -0.3333333), wk =   0.0069444
        k(   65) = (   0.2500000   0.4330127   0.0000000), wk =   0.0069444
        k(   66) = (   0.2500000   0.4330127   0.1111111), wk =   0.0138889
        k(   67) = (   0.2500000   0.4330127   0.2222222), wk =   0.0138889
        k(   68) = (   0.2500000   0.4330127  -0.3333333), wk =   0.0069444
        k(   69) = (   0.2500000   0.5292377   0.0000000), wk =   0.0138889
        k(   70) = (   0.2500000   0.5292377   0.1111111), wk =   0.0277778
        k(   71) = (   0.2500000   0.5292377   0.2222222), wk =   0.0277778
        k(   72) = (   0.2500000   0.5292377  -0.3333333), wk =   0.0138889
        k(   73) = (   0.3333333   0.5773503   0.0000000), wk =   0.0023148
        k(   74) = (   0.3333333   0.5773503   0.1111111), wk =   0.0046296
        k(   75) = (   0.3333333   0.5773503   0.2222222), wk =   0.0046296
        k(   76) = (   0.3333333   0.5773503  -0.3333333), wk =   0.0023148

     Dense  grid:     8597 G-vectors     FFT dimensions: (  24,  24,  36)

     Smooth grid:     2821 G-vectors     FFT dimensions: (  18,  18,  30)

     Estimated max dynamical RAM per process >      46.84 MB
     Generating pointlists ...
     new r_m :   0.3904 (alat units)  1.8038 (a.u.) for type    1

     Check: negative core charge=   -0.000014

     Initial potential from superposition of free atoms

     starting charge   17.99923, renormalised to   18.00000
     Starting wfcs are   12 randomized atomic wfcs +    1 random wfcs

     total cpu time spent up to now is        3.3 secs

     Self-consistent Calculation

     iteration #  1     ecut=    30.00 Ry     beta= 0.70
     Davidson diagonalization with overlap
     ethr =  1.00E-02,  avg # of iterations =  3.4

     total cpu time spent up to now is       12.0 secs

     total energy              =    -147.95814628 Ry
     Harris-Foulkes estimate   =    -148.09531829 Ry
     estimated scf accuracy    <       1.11974876 Ry

     total magnetization       =     4.76 Bohr mag/cell
     absolute magnetization    =     4.76 Bohr mag/cell

     iteration #  2     ecut=    30.00 Ry     beta= 0.70
     Davidson diagonalization with overlap
     ethr =  6.22E-03,  avg # of iterations =  2.3

     total cpu time spent up to now is       20.0 secs

     total energy              =    -148.18793383 Ry
     Harris-Foulkes estimate   =    -148.60807505 Ry
     estimated scf accuracy    <       1.04348085 Ry

     total magnetization       =     3.29 Bohr mag/cell
     absolute magnetization    =     3.42 Bohr mag/cell

     iteration #  3     ecut=    30.00 Ry     beta= 0.70
     Davidson diagonalization with overlap
     ethr =  5.80E-03,  avg # of iterations =  2.0

     total cpu time spent up to now is       26.7 secs

     total energy              =    -148.42542372 Ry
     Harris-Foulkes estimate   =    -148.39654323 Ry
     estimated scf accuracy    <       0.04473337 Ry

     total magnetization       =     3.45 Bohr mag/cell
     absolute magnetization    =     3.64 Bohr mag/cell

     iteration #  4     ecut=    30.00 Ry     beta= 0.70
     Davidson diagonalization with overlap
     ethr =  2.49E-04,  avg # of iterations =  1.9

     total cpu time spent up to now is       33.3 secs

     total energy              =    -148.43679395 Ry
     Harris-Foulkes estimate   =    -148.43655583 Ry
     estimated scf accuracy    <       0.00083415 Ry

     total magnetization       =     2.93 Bohr mag/cell
     absolute magnetization    =     3.18 Bohr mag/cell

     iteration #  5     ecut=    30.00 Ry     beta= 0.70
     Davidson diagonalization with overlap
     ethr =  4.63E-06,  avg # of iterations =  3.1

     total cpu time spent up to now is       41.6 secs

     total energy              =    -148.43740681 Ry
     Harris-Foulkes estimate   =    -148.43734283 Ry
     estimated scf accuracy    <       0.00032375 Ry

     total magnetization       =     2.83 Bohr mag/cell
     absolute magnetization    =     3.06 Bohr mag/cell

     iteration #  6     ecut=    30.00 Ry     beta= 0.70
     Davidson diagonalization with overlap
     ethr =  1.80E-06,  avg # of iterations =  1.9

     total cpu time spent up to now is       48.7 secs

     total energy              =    -148.43768230 Ry
     Harris-Foulkes estimate   =    -148.43768067 Ry
     estimated scf accuracy    <       0.00004572 Ry

     total magnetization       =     2.73 Bohr mag/cell
     absolute magnetization    =     2.93 Bohr mag/cell

     iteration #  7     ecut=    30.00 Ry     beta= 0.70
     Davidson diagonalization with overlap
     ethr =  2.54E-07,  avg # of iterations =  2.6

     total cpu time spent up to now is       56.8 secs

     total energy              =    -148.43774883 Ry
     Harris-Foulkes estimate   =    -148.43774707 Ry
     estimated scf accuracy    <       0.00000200 Ry

     total magnetization       =     2.68 Bohr mag/cell
     absolute magnetization    =     2.86 Bohr mag/cell

     iteration #  8     ecut=    30.00 Ry     beta= 0.70
     Davidson diagonalization with overlap
     ethr =  1.11E-08,  avg # of iterations =  2.4

     total cpu time spent up to now is       64.4 secs

     total energy              =    -148.43774880 Ry
     Harris-Foulkes estimate   =    -148.43775030 Ry
     estimated scf accuracy    <       0.00000144 Ry

     total magnetization       =     2.67 Bohr mag/cell
     absolute magnetization    =     2.86 Bohr mag/cell

     iteration #  9     ecut=    30.00 Ry     beta= 0.70
     Davidson diagonalization with overlap
     ethr =  8.02E-09,  avg # of iterations =  2.0

     total cpu time spent up to now is       71.7 secs

     total energy              =    -148.43775101 Ry
     Harris-Foulkes estimate   =    -148.43775106 Ry
     estimated scf accuracy    <       0.00000014 Ry

     total magnetization       =     2.66 Bohr mag/cell
     absolute magnetization    =     2.84 Bohr mag/cell

     iteration # 10     ecut=    30.00 Ry     beta= 0.70
     Davidson diagonalization with overlap
     ethr =  7.68E-10,  avg # of iterations =  2.1

     total cpu time spent up to now is       79.0 secs

     total energy              =    -148.43775106 Ry
     Harris-Foulkes estimate   =    -148.43775106 Ry
     estimated scf accuracy    <       0.00000002 Ry

     total magnetization       =     2.66 Bohr mag/cell
     absolute magnetization    =     2.84 Bohr mag/cell

     iteration # 11     ecut=    30.00 Ry     beta= 0.70
     Davidson diagonalization with overlap
     ethr =  8.93E-11,  avg # of iterations =  2.0

     Magnetic moment per site:
     atom:    1    charge:    7.4230    magn:    1.3730    constr:    0.0000
     atom:    2    charge:    7.4230    magn:    1.3730    constr:    0.0000

     total cpu time spent up to now is       85.7 secs

     End of self-consistent calculation

     Number of k-points >= 100: set verbosity='high' to print the bands.

     the Fermi energy is    16.3540 ev

!    total energy              =    -148.43775106 Ry
     Harris-Foulkes estimate   =    -148.43775106 Ry
     estimated scf accuracy    <          9.8E-11 Ry

     The total energy is the sum of the following terms:

     one-electron contribution =      14.03895161 Ry
     hartree contribution      =      19.38150646 Ry
     xc contribution           =     -65.03423554 Ry
     ewald contribution        =    -116.82928066 Ry
     smearing contrib. (-TS)   =       0.00530707 Ry

     total magnetization       =     2.66 Bohr mag/cell
     absolute magnetization    =     2.84 Bohr mag/cell

     convergence has been achieved in  11 iterations

     Forces acting on atoms (cartesian axes, Ry/au):

     atom    1 type  1   force =     0.00000000    0.00000000    0.00000000
     atom    2 type  1   force =     0.00000000    0.00000000    0.00000000

     Total force =     0.000000     Total SCF correction =     0.000000


     Computing stress (Cartesian axis) and pressure

          total   stress  (Ry/bohr**3)                   (kbar)     P=  139.12
   0.00036194   0.00000000   0.00000000         53.24      0.00      0.00
   0.00000000   0.00036194   0.00000000          0.00     53.24      0.00
   0.00000000   0.00000000   0.00211321          0.00      0.00    310.86


     Writing output data file Co.HCP.save/

     init_run     :      3.02s CPU      3.08s WALL (       1 calls)
     electrons    :     81.43s CPU     82.42s WALL (       1 calls)
     forces       :      0.94s CPU      0.95s WALL (       1 calls)
     stress       :      1.50s CPU      1.51s WALL (       1 calls)

     Called by init_run:
     wfcinit      :      2.16s CPU      2.20s WALL (       1 calls)
     potinit      :      0.05s CPU      0.05s WALL (       1 calls)
     hinit0       :      0.70s CPU      0.70s WALL (       1 calls)

     Called by electrons:
     c_bands      :     66.67s CPU     67.54s WALL (      11 calls)
     sum_band     :     13.27s CPU     13.40s WALL (      11 calls)
     v_of_rho     :      0.21s CPU      0.21s WALL (      12 calls)
     newd         :      1.27s CPU      1.29s WALL (      12 calls)
     mix_rho      :      0.06s CPU      0.06s WALL (      11 calls)

     Called by c_bands:
     init_us_2    :      0.92s CPU      0.93s WALL (    3800 calls)
     cegterg      :     64.74s CPU     65.57s WALL (    1672 calls)

     Called by sum_band:
     sum_band:bec :      0.15s CPU      0.16s WALL (    1672 calls)
     addusdens    :      2.00s CPU      2.02s WALL (      11 calls)

     Called by *egterg:
     h_psi        :     50.29s CPU     50.95s WALL (    5747 calls)
     s_psi        :      3.74s CPU      3.78s WALL (    5747 calls)
     g_psi        :      0.10s CPU      0.10s WALL (    3923 calls)
     cdiaghg      :      3.91s CPU      3.98s WALL (    5595 calls)

     Called by h_psi:
     h_psi:pot    :     50.21s CPU     50.87s WALL (    5747 calls)
     h_psi:calbec :      4.16s CPU      4.21s WALL (    5747 calls)
     vloc_psi     :     42.29s CPU     42.85s WALL (    5747 calls)
     add_vuspsi   :      3.72s CPU      3.77s WALL (    5747 calls)

     General routines
     calbec       :      6.37s CPU      6.44s WALL (    8179 calls)
     fft          :      0.15s CPU      0.15s WALL (     136 calls)
     ffts         :      0.05s CPU      0.05s WALL (      46 calls)
     fftw         :     45.53s CPU     46.15s WALL (  135044 calls)
     interpolate  :      0.07s CPU      0.07s WALL (      24 calls)

     Parallel routines

     PWSCF        :   1m27.22s CPU   1m28.34s WALL


   This run was terminated on:  18:26:27  19Feb2020            

=------------------------------------------------------------------------------=
   JOB DONE.
=------------------------------------------------------------------------------=
