     Message from routine get_command_line:
     unexpected argument # 2     :-input

     Program PWSCF v.6.4.1 starts on 19Feb2020 at 17:56:23 

     This program is part of the open-source Quantum ESPRESSO suite
     for quantum simulation of materials; please cite
         "P. Giannozzi et al., J. Phys.:Condens. Matter 21 395502 (2009);
         "P. Giannozzi et al., J. Phys.:Condens. Matter 29 465901 (2017);
          URL http://www.quantum-espresso.org", 
     in publications or presentations arising from this work. More details at
     http://www.quantum-espresso.org/quote

     Parallel version (MPI), running on     1 processors

     MPI processes distributed on     1 nodes
     Waiting for input...
     Reading input from standard input

     Current dimensions of program PWSCF are:
     Max number of different atomic species (ntypx) = 10
     Max number of k-points (npk) =  40000
     Max angular momentum in pseudopotentials (lmaxx) =  3
               file Co.pz-nd-rrkjus.UPF: wavefunction(s)  4S 3D renormalized

     Subspace diagonalization in iterative solution of the eigenvalue problem:
     a serial algorithm will be used


     G-vector sticks info
     --------------------
     sticks:   dense  smooth     PW     G-vecs:    dense   smooth      PW
     Sum         361     163     61                 9531     3129     665



     bravais-lattice index     =            4
     lattice parameter (alat)  =       4.5600  a.u.
     unit-cell volume          =     142.8810 (a.u.)^3
     number of atoms/cell      =            2
     number of atomic types    =            1
     number of electrons       =        18.00
     number of Kohn-Sham states=           13
     kinetic-energy cutoff     =      30.0000  Ry
     charge density cutoff     =     250.0000  Ry
     convergence threshold     =      1.0E-08
     mixing beta               =       0.7000
     number of iterations used =            8  plain     mixing
     Exchange-correlation      =  SLA  PZ   NOGX NOGC ( 1  1  0  0 0 0)

     celldm(1)=   4.560000  celldm(2)=   0.000000  celldm(3)=   1.740000
     celldm(4)=   0.000000  celldm(5)=   0.000000  celldm(6)=   0.000000

     crystal axes: (cart. coord. in units of alat)
               a(1) = (   1.000000   0.000000   0.000000 )  
               a(2) = (  -0.500000   0.866025   0.000000 )  
               a(3) = (   0.000000   0.000000   1.740000 )  

     reciprocal axes: (cart. coord. in units 2 pi/alat)
               b(1) = (  1.000000  0.577350 -0.000000 )  
               b(2) = (  0.000000  1.154701  0.000000 )  
               b(3) = (  0.000000 -0.000000  0.574713 )  


     PseudoPot. # 1 for Co read from file:
     ./Co.pz-nd-rrkjus.UPF
     MD5 check sum: c80159f6ca3a93d3df3cfc6468bb3c3d
     Pseudo is Ultrasoft + core correction, Zval =  9.0
     Generated by new atomic code, or converted to UPF format
     Using radial grid of  961 points,  6 beta functions with: 
                l(1) =   0
                l(2) =   0
                l(3) =   1
                l(4) =   1
                l(5) =   2
                l(6) =   2
     Q(r) pseudized with 0 coefficients 


     atomic species   valence    mass     pseudopotential
        Co             9.00    58.93300     Co( 1.00)

     Starting magnetic structure 
     atomic species   magnetization
        Co           0.700

     24 Sym. Ops., with inversion, found (12 have fractional translation)



   Cartesian axes

     site n.     atom                  positions (alat units)
         1           Co  tau(   1) = (  -0.0000000   0.5773503   0.4350000  )
         2           Co  tau(   2) = (   0.5000000   0.2886751   1.3050000  )

     number of k points=    76  Marzari-Vanderbilt smearing, width (Ry)=  0.0300
                       cart. coord. in units 2pi/alat
        k(    1) = (   0.0000000   0.0000000   0.0000000), wk =   0.0011574
        k(    2) = (   0.0000000   0.0000000   0.0957854), wk =   0.0023148
        k(    3) = (   0.0000000   0.0000000   0.1915709), wk =   0.0023148
        k(    4) = (   0.0000000   0.0000000  -0.2873563), wk =   0.0011574
        k(    5) = (   0.0000000   0.0962250   0.0000000), wk =   0.0069444
        k(    6) = (   0.0000000   0.0962250   0.0957854), wk =   0.0138889
        k(    7) = (   0.0000000   0.0962250   0.1915709), wk =   0.0138889
        k(    8) = (   0.0000000   0.0962250  -0.2873563), wk =   0.0069444
        k(    9) = (   0.0000000   0.1924501   0.0000000), wk =   0.0069444
        k(   10) = (   0.0000000   0.1924501   0.0957854), wk =   0.0138889
        k(   11) = (   0.0000000   0.1924501   0.1915709), wk =   0.0138889
        k(   12) = (   0.0000000   0.1924501  -0.2873563), wk =   0.0069444
        k(   13) = (   0.0000000   0.2886751   0.0000000), wk =   0.0069444
        k(   14) = (   0.0000000   0.2886751   0.0957854), wk =   0.0138889
        k(   15) = (   0.0000000   0.2886751   0.1915709), wk =   0.0138889
        k(   16) = (   0.0000000   0.2886751  -0.2873563), wk =   0.0069444
        k(   17) = (   0.0000000   0.3849002   0.0000000), wk =   0.0069444
        k(   18) = (   0.0000000   0.3849002   0.0957854), wk =   0.0138889
        k(   19) = (   0.0000000   0.3849002   0.1915709), wk =   0.0138889
        k(   20) = (   0.0000000   0.3849002  -0.2873563), wk =   0.0069444
        k(   21) = (   0.0000000   0.4811252   0.0000000), wk =   0.0069444
        k(   22) = (   0.0000000   0.4811252   0.0957854), wk =   0.0138889
        k(   23) = (   0.0000000   0.4811252   0.1915709), wk =   0.0138889
        k(   24) = (   0.0000000   0.4811252  -0.2873563), wk =   0.0069444
        k(   25) = (   0.0000000  -0.5773503   0.0000000), wk =   0.0034722
        k(   26) = (   0.0000000  -0.5773503   0.0957854), wk =   0.0069444
        k(   27) = (   0.0000000  -0.5773503   0.1915709), wk =   0.0069444
        k(   28) = (   0.0000000  -0.5773503  -0.2873563), wk =   0.0034722
        k(   29) = (   0.0833333   0.1443376   0.0000000), wk =   0.0069444
        k(   30) = (   0.0833333   0.1443376   0.0957854), wk =   0.0138889
        k(   31) = (   0.0833333   0.1443376   0.1915709), wk =   0.0138889
        k(   32) = (   0.0833333   0.1443376  -0.2873563), wk =   0.0069444
        k(   33) = (   0.0833333   0.2405626   0.0000000), wk =   0.0138889
        k(   34) = (   0.0833333   0.2405626   0.0957854), wk =   0.0277778
        k(   35) = (   0.0833333   0.2405626   0.1915709), wk =   0.0277778
        k(   36) = (   0.0833333   0.2405626  -0.2873563), wk =   0.0138889
        k(   37) = (   0.0833333   0.3367877   0.0000000), wk =   0.0138889
        k(   38) = (   0.0833333   0.3367877   0.0957854), wk =   0.0277778
        k(   39) = (   0.0833333   0.3367877   0.1915709), wk =   0.0277778
        k(   40) = (   0.0833333   0.3367877  -0.2873563), wk =   0.0138889
        k(   41) = (   0.0833333   0.4330127   0.0000000), wk =   0.0138889
        k(   42) = (   0.0833333   0.4330127   0.0957854), wk =   0.0277778
        k(   43) = (   0.0833333   0.4330127   0.1915709), wk =   0.0277778
        k(   44) = (   0.0833333   0.4330127  -0.2873563), wk =   0.0138889
        k(   45) = (   0.0833333   0.5292377   0.0000000), wk =   0.0138889
        k(   46) = (   0.0833333   0.5292377   0.0957854), wk =   0.0277778
        k(   47) = (   0.0833333   0.5292377   0.1915709), wk =   0.0277778
        k(   48) = (   0.0833333   0.5292377  -0.2873563), wk =   0.0138889
        k(   49) = (   0.1666667   0.2886751   0.0000000), wk =   0.0069444
        k(   50) = (   0.1666667   0.2886751   0.0957854), wk =   0.0138889
        k(   51) = (   0.1666667   0.2886751   0.1915709), wk =   0.0138889
        k(   52) = (   0.1666667   0.2886751  -0.2873563), wk =   0.0069444
        k(   53) = (   0.1666667   0.3849002   0.0000000), wk =   0.0138889
        k(   54) = (   0.1666667   0.3849002   0.0957854), wk =   0.0277778
        k(   55) = (   0.1666667   0.3849002   0.1915709), wk =   0.0277778
        k(   56) = (   0.1666667   0.3849002  -0.2873563), wk =   0.0138889
        k(   57) = (   0.1666667   0.4811252   0.0000000), wk =   0.0138889
        k(   58) = (   0.1666667   0.4811252   0.0957854), wk =   0.0277778
        k(   59) = (   0.1666667   0.4811252   0.1915709), wk =   0.0277778
        k(   60) = (   0.1666667   0.4811252  -0.2873563), wk =   0.0138889
        k(   61) = (   0.1666667   0.5773503   0.0000000), wk =   0.0069444
        k(   62) = (   0.1666667   0.5773503   0.0957854), wk =   0.0138889
        k(   63) = (   0.1666667   0.5773503   0.1915709), wk =   0.0138889
        k(   64) = (   0.1666667   0.5773503  -0.2873563), wk =   0.0069444
        k(   65) = (   0.2500000   0.4330127   0.0000000), wk =   0.0069444
        k(   66) = (   0.2500000   0.4330127   0.0957854), wk =   0.0138889
        k(   67) = (   0.2500000   0.4330127   0.1915709), wk =   0.0138889
        k(   68) = (   0.2500000   0.4330127  -0.2873563), wk =   0.0069444
        k(   69) = (   0.2500000   0.5292377   0.0000000), wk =   0.0138889
        k(   70) = (   0.2500000   0.5292377   0.0957854), wk =   0.0277778
        k(   71) = (   0.2500000   0.5292377   0.1915709), wk =   0.0277778
        k(   72) = (   0.2500000   0.5292377  -0.2873563), wk =   0.0138889
        k(   73) = (   0.3333333   0.5773503   0.0000000), wk =   0.0023148
        k(   74) = (   0.3333333   0.5773503   0.0957854), wk =   0.0046296
        k(   75) = (   0.3333333   0.5773503   0.1915709), wk =   0.0046296
        k(   76) = (   0.3333333   0.5773503  -0.2873563), wk =   0.0023148

     Dense  grid:     9531 G-vectors     FFT dimensions: (  24,  24,  40)

     Smooth grid:     3129 G-vectors     FFT dimensions: (  15,  15,  30)

     Estimated max dynamical RAM per process >      51.89 MB
     Generating pointlists ...
     new r_m :   0.4125 (alat units)  1.8810 (a.u.) for type    1

     Check: negative core charge=   -0.000027

     Initial potential from superposition of free atoms

     starting charge   17.99923, renormalised to   18.00000
     Starting wfcs are   12 randomized atomic wfcs +    1 random wfcs

     total cpu time spent up to now is        2.5 secs

     Self-consistent Calculation

     iteration #  1     ecut=    30.00 Ry     beta= 0.70
     Davidson diagonalization with overlap
     ethr =  1.00E-02,  avg # of iterations =  3.4

     total cpu time spent up to now is        8.3 secs

     total energy              =    -147.89255527 Ry
     Harris-Foulkes estimate   =    -148.15870432 Ry
     estimated scf accuracy    <       1.20045819 Ry

     total magnetization       =     5.00 Bohr mag/cell
     absolute magnetization    =     5.02 Bohr mag/cell

     iteration #  2     ecut=    30.00 Ry     beta= 0.70
     Davidson diagonalization with overlap
     ethr =  6.67E-03,  avg # of iterations =  2.5

     total cpu time spent up to now is       13.6 secs

     total energy              =    -148.11765742 Ry
     Harris-Foulkes estimate   =    -148.71900101 Ry
     estimated scf accuracy    <       1.50956152 Ry

     total magnetization       =     3.28 Bohr mag/cell
     absolute magnetization    =     3.43 Bohr mag/cell

     iteration #  3     ecut=    30.00 Ry     beta= 0.70
     Davidson diagonalization with overlap
     ethr =  6.67E-03,  avg # of iterations =  2.0

     total cpu time spent up to now is       18.0 secs

     total energy              =    -148.42820417 Ry
     Harris-Foulkes estimate   =    -148.39686309 Ry
     estimated scf accuracy    <       0.04049491 Ry

     total magnetization       =     3.66 Bohr mag/cell
     absolute magnetization    =     3.86 Bohr mag/cell

     iteration #  4     ecut=    30.00 Ry     beta= 0.70
     Davidson diagonalization with overlap
     ethr =  2.25E-04,  avg # of iterations =  1.9

     total cpu time spent up to now is       22.4 secs

     total energy              =    -148.43896067 Ry
     Harris-Foulkes estimate   =    -148.43884143 Ry
     estimated scf accuracy    <       0.00015538 Ry

     total magnetization       =     3.31 Bohr mag/cell
     absolute magnetization    =     3.57 Bohr mag/cell

     iteration #  5     ecut=    30.00 Ry     beta= 0.70
     Davidson diagonalization with overlap
     ethr =  8.63E-07,  avg # of iterations =  3.7

     total cpu time spent up to now is       29.4 secs

     total energy              =    -148.43925245 Ry
     Harris-Foulkes estimate   =    -148.43924186 Ry
     estimated scf accuracy    <       0.00004702 Ry

     total magnetization       =     3.31 Bohr mag/cell
     absolute magnetization    =     3.55 Bohr mag/cell

     iteration #  6     ecut=    30.00 Ry     beta= 0.70
     Davidson diagonalization with overlap
     ethr =  2.61E-07,  avg # of iterations =  1.5

     total cpu time spent up to now is       33.7 secs

     total energy              =    -148.43926625 Ry
     Harris-Foulkes estimate   =    -148.43926185 Ry
     estimated scf accuracy    <       0.00000204 Ry

     total magnetization       =     3.31 Bohr mag/cell
     absolute magnetization    =     3.54 Bohr mag/cell

     iteration #  7     ecut=    30.00 Ry     beta= 0.70
     Davidson diagonalization with overlap
     ethr =  1.13E-08,  avg # of iterations =  2.9

     total cpu time spent up to now is       39.5 secs

     total energy              =    -148.43926782 Ry
     Harris-Foulkes estimate   =    -148.43926773 Ry
     estimated scf accuracy    <       0.00000012 Ry

     total magnetization       =     3.31 Bohr mag/cell
     absolute magnetization    =     3.54 Bohr mag/cell

     iteration #  8     ecut=    30.00 Ry     beta= 0.70
     Davidson diagonalization with overlap
     ethr =  6.76E-10,  avg # of iterations =  2.2

     Magnetic moment per site:
     atom:    1    charge:    7.5301    magn:    1.7078    constr:    0.0000
     atom:    2    charge:    7.5301    magn:    1.7078    constr:    0.0000

     total cpu time spent up to now is       44.3 secs

     End of self-consistent calculation

     Number of k-points >= 100: set verbosity='high' to print the bands.

     the Fermi energy is    14.2903 ev

!    total energy              =    -148.43926788 Ry
     Harris-Foulkes estimate   =    -148.43926787 Ry
     estimated scf accuracy    <          3.4E-09 Ry

     The total energy is the sum of the following terms:

     one-electron contribution =       8.11249068 Ry
     hartree contribution      =      21.01636390 Ry
     xc contribution           =     -64.87969155 Ry
     ewald contribution        =    -112.69487528 Ry
     smearing contrib. (-TS)   =       0.00644437 Ry

     total magnetization       =     3.31 Bohr mag/cell
     absolute magnetization    =     3.53 Bohr mag/cell

     convergence has been achieved in   8 iterations

     Forces acting on atoms (cartesian axes, Ry/au):

     atom    1 type  1   force =     0.00000000    0.00000000    0.00000000
     atom    2 type  1   force =     0.00000000    0.00000000    0.00000000

     Total force =     0.000000     Total SCF correction =     0.000000


     Computing stress (Cartesian axis) and pressure

          total   stress  (Ry/bohr**3)                   (kbar)     P= -113.02
  -0.00031556  -0.00000000   0.00000000        -46.42     -0.00      0.00
  -0.00000000  -0.00031556   0.00000000         -0.00    -46.42      0.00
  -0.00000000  -0.00000000  -0.00167386         -0.00     -0.00   -246.23


     Writing output data file Co.HCP.save/

     init_run     :      2.23s CPU      2.25s WALL (       1 calls)
     electrons    :     41.14s CPU     41.72s WALL (       1 calls)
     forces       :      1.08s CPU      1.09s WALL (       1 calls)
     stress       :      1.72s CPU      1.74s WALL (       1 calls)

     Called by init_run:
     wfcinit      :      1.30s CPU      1.32s WALL (       1 calls)
     potinit      :      0.06s CPU      0.06s WALL (       1 calls)
     hinit0       :      0.72s CPU      0.73s WALL (       1 calls)

     Called by electrons:
     c_bands      :     34.14s CPU     34.63s WALL (       8 calls)
     sum_band     :      5.81s CPU      5.90s WALL (       8 calls)
     v_of_rho     :      0.18s CPU      0.18s WALL (       9 calls)
     newd         :      1.07s CPU      1.08s WALL (       9 calls)
     mix_rho      :      0.05s CPU      0.05s WALL (       8 calls)

     Called by c_bands:
     init_us_2    :      0.78s CPU      0.79s WALL (    2888 calls)
     cegterg      :     32.56s CPU     33.03s WALL (    1216 calls)

     Called by sum_band:
     sum_band:bec :      0.12s CPU      0.12s WALL (    1216 calls)
     addusdens    :      1.62s CPU      1.65s WALL (       8 calls)

     Called by *egterg:
     h_psi        :     19.00s CPU     19.30s WALL (    4449 calls)
     s_psi        :      3.18s CPU      3.24s WALL (    4449 calls)
     g_psi        :      0.09s CPU      0.09s WALL (    3081 calls)
     cdiaghg      :      3.39s CPU      3.44s WALL (    4297 calls)

     Called by h_psi:
     h_psi:pot    :     18.93s CPU     19.23s WALL (    4449 calls)
     h_psi:calbec :      3.61s CPU      3.68s WALL (    4449 calls)
     vloc_psi     :     12.05s CPU     12.23s WALL (    4449 calls)
     add_vuspsi   :      3.24s CPU      3.29s WALL (    4449 calls)

     General routines
     calbec       :      5.65s CPU      5.75s WALL (    6425 calls)
     fft          :      0.13s CPU      0.14s WALL (     103 calls)
     ffts         :      0.02s CPU      0.02s WALL (      34 calls)
     fftw         :     11.16s CPU     11.34s WALL (  104070 calls)
     interpolate  :      0.03s CPU      0.03s WALL (      18 calls)

     Parallel routines

     PWSCF        :     46.54s CPU     47.23s WALL


   This run was terminated on:  17:57:10  19Feb2020            

=------------------------------------------------------------------------------=
   JOB DONE.
=------------------------------------------------------------------------------=
