     Message from routine get_command_line:
     unexpected argument # 2     :-input

     Program PWSCF v.6.4.1 starts on 19Feb2020 at 17:57:10 

     This program is part of the open-source Quantum ESPRESSO suite
     for quantum simulation of materials; please cite
         "P. Giannozzi et al., J. Phys.:Condens. Matter 21 395502 (2009);
         "P. Giannozzi et al., J. Phys.:Condens. Matter 29 465901 (2017);
          URL http://www.quantum-espresso.org", 
     in publications or presentations arising from this work. More details at
     http://www.quantum-espresso.org/quote

     Parallel version (MPI), running on     1 processors

     MPI processes distributed on     1 nodes
     Waiting for input...
     Reading input from standard input

     Current dimensions of program PWSCF are:
     Max number of different atomic species (ntypx) = 10
     Max number of k-points (npk) =  40000
     Max angular momentum in pseudopotentials (lmaxx) =  3
               file Co.pz-nd-rrkjus.UPF: wavefunction(s)  4S 3D renormalized

     Subspace diagonalization in iterative solution of the eigenvalue problem:
     a serial algorithm will be used


     G-vector sticks info
     --------------------
     sticks:   dense  smooth     PW     G-vecs:    dense   smooth      PW
     Sum         361     163     61                 8327     2729     579



     bravais-lattice index     =            4
     lattice parameter (alat)  =       4.5800  a.u.
     unit-cell volume          =     124.8011 (a.u.)^3
     number of atoms/cell      =            2
     number of atomic types    =            1
     number of electrons       =        18.00
     number of Kohn-Sham states=           13
     kinetic-energy cutoff     =      30.0000  Ry
     charge density cutoff     =     250.0000  Ry
     convergence threshold     =      1.0E-08
     mixing beta               =       0.7000
     number of iterations used =            8  plain     mixing
     Exchange-correlation      =  SLA  PZ   NOGX NOGC ( 1  1  0  0 0 0)

     celldm(1)=   4.580000  celldm(2)=   0.000000  celldm(3)=   1.500000
     celldm(4)=   0.000000  celldm(5)=   0.000000  celldm(6)=   0.000000

     crystal axes: (cart. coord. in units of alat)
               a(1) = (   1.000000   0.000000   0.000000 )  
               a(2) = (  -0.500000   0.866025   0.000000 )  
               a(3) = (   0.000000   0.000000   1.500000 )  

     reciprocal axes: (cart. coord. in units 2 pi/alat)
               b(1) = (  1.000000  0.577350 -0.000000 )  
               b(2) = (  0.000000  1.154701  0.000000 )  
               b(3) = (  0.000000 -0.000000  0.666667 )  


     PseudoPot. # 1 for Co read from file:
     ./Co.pz-nd-rrkjus.UPF
     MD5 check sum: c80159f6ca3a93d3df3cfc6468bb3c3d
     Pseudo is Ultrasoft + core correction, Zval =  9.0
     Generated by new atomic code, or converted to UPF format
     Using radial grid of  961 points,  6 beta functions with: 
                l(1) =   0
                l(2) =   0
                l(3) =   1
                l(4) =   1
                l(5) =   2
                l(6) =   2
     Q(r) pseudized with 0 coefficients 


     atomic species   valence    mass     pseudopotential
        Co             9.00    58.93300     Co( 1.00)

     Starting magnetic structure 
     atomic species   magnetization
        Co           0.700

     24 Sym. Ops., with inversion, found (12 have fractional translation)



   Cartesian axes

     site n.     atom                  positions (alat units)
         1           Co  tau(   1) = (  -0.0000000   0.5773503   0.3750000  )
         2           Co  tau(   2) = (   0.5000000   0.2886751   1.1250000  )

     number of k points=    76  Marzari-Vanderbilt smearing, width (Ry)=  0.0300
                       cart. coord. in units 2pi/alat
        k(    1) = (   0.0000000   0.0000000   0.0000000), wk =   0.0011574
        k(    2) = (   0.0000000   0.0000000   0.1111111), wk =   0.0023148
        k(    3) = (   0.0000000   0.0000000   0.2222222), wk =   0.0023148
        k(    4) = (   0.0000000   0.0000000  -0.3333333), wk =   0.0011574
        k(    5) = (   0.0000000   0.0962250   0.0000000), wk =   0.0069444
        k(    6) = (   0.0000000   0.0962250   0.1111111), wk =   0.0138889
        k(    7) = (   0.0000000   0.0962250   0.2222222), wk =   0.0138889
        k(    8) = (   0.0000000   0.0962250  -0.3333333), wk =   0.0069444
        k(    9) = (   0.0000000   0.1924501   0.0000000), wk =   0.0069444
        k(   10) = (   0.0000000   0.1924501   0.1111111), wk =   0.0138889
        k(   11) = (   0.0000000   0.1924501   0.2222222), wk =   0.0138889
        k(   12) = (   0.0000000   0.1924501  -0.3333333), wk =   0.0069444
        k(   13) = (   0.0000000   0.2886751   0.0000000), wk =   0.0069444
        k(   14) = (   0.0000000   0.2886751   0.1111111), wk =   0.0138889
        k(   15) = (   0.0000000   0.2886751   0.2222222), wk =   0.0138889
        k(   16) = (   0.0000000   0.2886751  -0.3333333), wk =   0.0069444
        k(   17) = (   0.0000000   0.3849002   0.0000000), wk =   0.0069444
        k(   18) = (   0.0000000   0.3849002   0.1111111), wk =   0.0138889
        k(   19) = (   0.0000000   0.3849002   0.2222222), wk =   0.0138889
        k(   20) = (   0.0000000   0.3849002  -0.3333333), wk =   0.0069444
        k(   21) = (   0.0000000   0.4811252   0.0000000), wk =   0.0069444
        k(   22) = (   0.0000000   0.4811252   0.1111111), wk =   0.0138889
        k(   23) = (   0.0000000   0.4811252   0.2222222), wk =   0.0138889
        k(   24) = (   0.0000000   0.4811252  -0.3333333), wk =   0.0069444
        k(   25) = (   0.0000000  -0.5773503   0.0000000), wk =   0.0034722
        k(   26) = (   0.0000000  -0.5773503   0.1111111), wk =   0.0069444
        k(   27) = (   0.0000000  -0.5773503   0.2222222), wk =   0.0069444
        k(   28) = (   0.0000000  -0.5773503  -0.3333333), wk =   0.0034722
        k(   29) = (   0.0833333   0.1443376   0.0000000), wk =   0.0069444
        k(   30) = (   0.0833333   0.1443376   0.1111111), wk =   0.0138889
        k(   31) = (   0.0833333   0.1443376   0.2222222), wk =   0.0138889
        k(   32) = (   0.0833333   0.1443376  -0.3333333), wk =   0.0069444
        k(   33) = (   0.0833333   0.2405626   0.0000000), wk =   0.0138889
        k(   34) = (   0.0833333   0.2405626   0.1111111), wk =   0.0277778
        k(   35) = (   0.0833333   0.2405626   0.2222222), wk =   0.0277778
        k(   36) = (   0.0833333   0.2405626  -0.3333333), wk =   0.0138889
        k(   37) = (   0.0833333   0.3367877   0.0000000), wk =   0.0138889
        k(   38) = (   0.0833333   0.3367877   0.1111111), wk =   0.0277778
        k(   39) = (   0.0833333   0.3367877   0.2222222), wk =   0.0277778
        k(   40) = (   0.0833333   0.3367877  -0.3333333), wk =   0.0138889
        k(   41) = (   0.0833333   0.4330127   0.0000000), wk =   0.0138889
        k(   42) = (   0.0833333   0.4330127   0.1111111), wk =   0.0277778
        k(   43) = (   0.0833333   0.4330127   0.2222222), wk =   0.0277778
        k(   44) = (   0.0833333   0.4330127  -0.3333333), wk =   0.0138889
        k(   45) = (   0.0833333   0.5292377   0.0000000), wk =   0.0138889
        k(   46) = (   0.0833333   0.5292377   0.1111111), wk =   0.0277778
        k(   47) = (   0.0833333   0.5292377   0.2222222), wk =   0.0277778
        k(   48) = (   0.0833333   0.5292377  -0.3333333), wk =   0.0138889
        k(   49) = (   0.1666667   0.2886751   0.0000000), wk =   0.0069444
        k(   50) = (   0.1666667   0.2886751   0.1111111), wk =   0.0138889
        k(   51) = (   0.1666667   0.2886751   0.2222222), wk =   0.0138889
        k(   52) = (   0.1666667   0.2886751  -0.3333333), wk =   0.0069444
        k(   53) = (   0.1666667   0.3849002   0.0000000), wk =   0.0138889
        k(   54) = (   0.1666667   0.3849002   0.1111111), wk =   0.0277778
        k(   55) = (   0.1666667   0.3849002   0.2222222), wk =   0.0277778
        k(   56) = (   0.1666667   0.3849002  -0.3333333), wk =   0.0138889
        k(   57) = (   0.1666667   0.4811252   0.0000000), wk =   0.0138889
        k(   58) = (   0.1666667   0.4811252   0.1111111), wk =   0.0277778
        k(   59) = (   0.1666667   0.4811252   0.2222222), wk =   0.0277778
        k(   60) = (   0.1666667   0.4811252  -0.3333333), wk =   0.0138889
        k(   61) = (   0.1666667   0.5773503   0.0000000), wk =   0.0069444
        k(   62) = (   0.1666667   0.5773503   0.1111111), wk =   0.0138889
        k(   63) = (   0.1666667   0.5773503   0.2222222), wk =   0.0138889
        k(   64) = (   0.1666667   0.5773503  -0.3333333), wk =   0.0069444
        k(   65) = (   0.2500000   0.4330127   0.0000000), wk =   0.0069444
        k(   66) = (   0.2500000   0.4330127   0.1111111), wk =   0.0138889
        k(   67) = (   0.2500000   0.4330127   0.2222222), wk =   0.0138889
        k(   68) = (   0.2500000   0.4330127  -0.3333333), wk =   0.0069444
        k(   69) = (   0.2500000   0.5292377   0.0000000), wk =   0.0138889
        k(   70) = (   0.2500000   0.5292377   0.1111111), wk =   0.0277778
        k(   71) = (   0.2500000   0.5292377   0.2222222), wk =   0.0277778
        k(   72) = (   0.2500000   0.5292377  -0.3333333), wk =   0.0138889
        k(   73) = (   0.3333333   0.5773503   0.0000000), wk =   0.0023148
        k(   74) = (   0.3333333   0.5773503   0.1111111), wk =   0.0046296
        k(   75) = (   0.3333333   0.5773503   0.2222222), wk =   0.0046296
        k(   76) = (   0.3333333   0.5773503  -0.3333333), wk =   0.0023148

     Dense  grid:     8327 G-vectors     FFT dimensions: (  24,  24,  36)

     Smooth grid:     2729 G-vectors     FFT dimensions: (  15,  15,  24)

     Estimated max dynamical RAM per process >      45.52 MB
     Generating pointlists ...
     new r_m :   0.3904 (alat units)  1.7881 (a.u.) for type    1

     Check: negative core charge=   -0.000014

     Initial potential from superposition of free atoms

     starting charge   17.99923, renormalised to   18.00000
     Starting wfcs are   12 randomized atomic wfcs +    1 random wfcs

     total cpu time spent up to now is        2.0 secs

     Self-consistent Calculation

     iteration #  1     ecut=    30.00 Ry     beta= 0.70
     Davidson diagonalization with overlap
     ethr =  1.00E-02,  avg # of iterations =  3.4

     total cpu time spent up to now is        6.3 secs

     total energy              =    -147.97003343 Ry
     Harris-Foulkes estimate   =    -148.07740331 Ry
     estimated scf accuracy    <       1.10678130 Ry

     total magnetization       =     4.68 Bohr mag/cell
     absolute magnetization    =     4.69 Bohr mag/cell

     iteration #  2     ecut=    30.00 Ry     beta= 0.70
     Davidson diagonalization with overlap
     ethr =  6.15E-03,  avg # of iterations =  2.3

     total cpu time spent up to now is       10.1 secs

     total energy              =    -148.19670271 Ry
     Harris-Foulkes estimate   =    -148.58330131 Ry
     estimated scf accuracy    <       0.95990207 Ry

     total magnetization       =     3.28 Bohr mag/cell
     absolute magnetization    =     3.41 Bohr mag/cell

     iteration #  3     ecut=    30.00 Ry     beta= 0.70
     Davidson diagonalization with overlap
     ethr =  5.33E-03,  avg # of iterations =  2.0

     total cpu time spent up to now is       13.4 secs

     total energy              =    -148.42032441 Ry
     Harris-Foulkes estimate   =    -148.39324483 Ry
     estimated scf accuracy    <       0.04513425 Ry

     total magnetization       =     3.43 Bohr mag/cell
     absolute magnetization    =     3.60 Bohr mag/cell

     iteration #  4     ecut=    30.00 Ry     beta= 0.70
     Davidson diagonalization with overlap
     ethr =  2.51E-04,  avg # of iterations =  1.8

     total cpu time spent up to now is       16.4 secs

     total energy              =    -148.43217926 Ry
     Harris-Foulkes estimate   =    -148.43178466 Ry
     estimated scf accuracy    <       0.00121569 Ry

     total magnetization       =     2.86 Bohr mag/cell
     absolute magnetization    =     3.10 Bohr mag/cell

     iteration #  5     ecut=    30.00 Ry     beta= 0.70
     Davidson diagonalization with overlap
     ethr =  6.75E-06,  avg # of iterations =  2.8

     total cpu time spent up to now is       20.3 secs

     total energy              =    -148.43292982 Ry
     Harris-Foulkes estimate   =    -148.43286196 Ry
     estimated scf accuracy    <       0.00054125 Ry

     total magnetization       =     2.73 Bohr mag/cell
     absolute magnetization    =     2.95 Bohr mag/cell

     iteration #  6     ecut=    30.00 Ry     beta= 0.70
     Davidson diagonalization with overlap
     ethr =  3.01E-06,  avg # of iterations =  1.8

     total cpu time spent up to now is       23.6 secs

     total energy              =    -148.43342460 Ry
     Harris-Foulkes estimate   =    -148.43343762 Ry
     estimated scf accuracy    <       0.00008109 Ry

     total magnetization       =     2.58 Bohr mag/cell
     absolute magnetization    =     2.78 Bohr mag/cell

     iteration #  7     ecut=    30.00 Ry     beta= 0.70
     Davidson diagonalization with overlap
     ethr =  4.50E-07,  avg # of iterations =  2.6

     total cpu time spent up to now is       27.6 secs

     total energy              =    -148.43357279 Ry
     Harris-Foulkes estimate   =    -148.43356866 Ry
     estimated scf accuracy    <       0.00000473 Ry

     total magnetization       =     2.50 Bohr mag/cell
     absolute magnetization    =     2.68 Bohr mag/cell

     iteration #  8     ecut=    30.00 Ry     beta= 0.70
     Davidson diagonalization with overlap
     ethr =  2.63E-08,  avg # of iterations =  2.3

     total cpu time spent up to now is       31.2 secs

     total energy              =    -148.43357243 Ry
     Harris-Foulkes estimate   =    -148.43357641 Ry
     estimated scf accuracy    <       0.00000251 Ry

     total magnetization       =     2.49 Bohr mag/cell
     absolute magnetization    =     2.66 Bohr mag/cell

     iteration #  9     ecut=    30.00 Ry     beta= 0.70
     Davidson diagonalization with overlap
     ethr =  1.39E-08,  avg # of iterations =  2.1

     total cpu time spent up to now is       34.7 secs

     total energy              =    -148.43357830 Ry
     Harris-Foulkes estimate   =    -148.43357838 Ry
     estimated scf accuracy    <       0.00000025 Ry

     total magnetization       =     2.48 Bohr mag/cell
     absolute magnetization    =     2.64 Bohr mag/cell

     iteration # 10     ecut=    30.00 Ry     beta= 0.70
     Davidson diagonalization with overlap
     ethr =  1.37E-09,  avg # of iterations =  2.1

     total cpu time spent up to now is       38.4 secs

     total energy              =    -148.43357839 Ry
     Harris-Foulkes estimate   =    -148.43357840 Ry
     estimated scf accuracy    <       0.00000004 Ry

     total magnetization       =     2.48 Bohr mag/cell
     absolute magnetization    =     2.64 Bohr mag/cell

     iteration # 11     ecut=    30.00 Ry     beta= 0.70
     Davidson diagonalization with overlap
     ethr =  2.26E-10,  avg # of iterations =  1.9

     Magnetic moment per site:
     atom:    1    charge:    7.4039    magn:    1.2767    constr:    0.0000
     atom:    2    charge:    7.4039    magn:    1.2767    constr:    0.0000

     total cpu time spent up to now is       41.5 secs

     End of self-consistent calculation

     Number of k-points >= 100: set verbosity='high' to print the bands.

     the Fermi energy is    16.9224 ev

!    total energy              =    -148.43357840 Ry
     Harris-Foulkes estimate   =    -148.43357840 Ry
     estimated scf accuracy    <          7.9E-10 Ry

     The total energy is the sum of the following terms:

     one-electron contribution =      15.49957563 Ry
     hartree contribution      =      18.98623104 Ry
     xc contribution           =     -65.07332840 Ry
     ewald contribution        =    -117.84962372 Ry
     smearing contrib. (-TS)   =       0.00356705 Ry

     total magnetization       =     2.48 Bohr mag/cell
     absolute magnetization    =     2.64 Bohr mag/cell

     convergence has been achieved in  11 iterations

     Forces acting on atoms (cartesian axes, Ry/au):

     atom    1 type  1   force =     0.00000000    0.00000000    0.00000000
     atom    2 type  1   force =     0.00000000    0.00000000    0.00000000

     Total force =     0.000000     Total SCF correction =     0.000000


     Computing stress (Cartesian axis) and pressure

          total   stress  (Ry/bohr**3)                   (kbar)     P=  221.50
   0.00088781   0.00000000   0.00000000        130.60      0.00      0.00
   0.00000000   0.00088781   0.00000000          0.00    130.60      0.00
   0.00000000   0.00000000   0.00274165          0.00      0.00    403.31


     Writing output data file Co.HCP.save/

     init_run     :      1.72s CPU      1.78s WALL (       1 calls)
     electrons    :     38.78s CPU     39.47s WALL (       1 calls)
     forces       :      0.90s CPU      0.90s WALL (       1 calls)
     stress       :      1.49s CPU      1.49s WALL (       1 calls)

     Called by init_run:
     wfcinit      :      0.87s CPU      0.90s WALL (       1 calls)
     potinit      :      0.04s CPU      0.04s WALL (       1 calls)
     hinit0       :      0.70s CPU      0.71s WALL (       1 calls)

     Called by electrons:
     c_bands      :     31.62s CPU     32.22s WALL (      11 calls)
     sum_band     :      5.72s CPU      5.81s WALL (      11 calls)
     v_of_rho     :      0.22s CPU      0.22s WALL (      12 calls)
     newd         :      1.24s CPU      1.26s WALL (      12 calls)
     mix_rho      :      0.06s CPU      0.06s WALL (      11 calls)

     Called by c_bands:
     init_us_2    :      0.88s CPU      0.90s WALL (    3800 calls)
     cegterg      :     29.74s CPU     30.31s WALL (    1672 calls)

     Called by sum_band:
     sum_band:bec :      0.15s CPU      0.15s WALL (    1672 calls)
     addusdens    :      1.92s CPU      1.93s WALL (      11 calls)

     Called by *egterg:
     h_psi        :     14.63s CPU     14.97s WALL (    5654 calls)
     s_psi        :      3.56s CPU      3.65s WALL (    5654 calls)
     g_psi        :      0.09s CPU      0.09s WALL (    3830 calls)
     cdiaghg      :      3.75s CPU      3.80s WALL (    5502 calls)

     Called by h_psi:
     h_psi:pot    :     14.55s CPU     14.88s WALL (    5654 calls)
     h_psi:calbec :      3.97s CPU      4.07s WALL (    5654 calls)
     vloc_psi     :      6.98s CPU      7.12s WALL (    5654 calls)
     add_vuspsi   :      3.57s CPU      3.66s WALL (    5654 calls)

     General routines
     calbec       :      6.11s CPU      6.24s WALL (    8086 calls)
     fft          :      0.15s CPU      0.15s WALL (     136 calls)
     ffts         :      0.02s CPU      0.02s WALL (      46 calls)
     fftw         :      5.25s CPU      5.36s WALL (  134364 calls)
     interpolate  :      0.04s CPU      0.04s WALL (      24 calls)

     Parallel routines

     PWSCF        :     43.23s CPU     44.02s WALL


   This run was terminated on:  17:57:54  19Feb2020            

=------------------------------------------------------------------------------=
   JOB DONE.
=------------------------------------------------------------------------------=
