     Message from routine get_command_line:
     unexpected argument # 2     :-input

     Program PWSCF v.6.4.1 starts on 19Feb2020 at 17:31:30 

     This program is part of the open-source Quantum ESPRESSO suite
     for quantum simulation of materials; please cite
         "P. Giannozzi et al., J. Phys.:Condens. Matter 21 395502 (2009);
         "P. Giannozzi et al., J. Phys.:Condens. Matter 29 465901 (2017);
          URL http://www.quantum-espresso.org", 
     in publications or presentations arising from this work. More details at
     http://www.quantum-espresso.org/quote

     Parallel version (MPI), running on     1 processors

     MPI processes distributed on     1 nodes
     Waiting for input...
     Reading input from standard input

     Current dimensions of program PWSCF are:
     Max number of different atomic species (ntypx) = 10
     Max number of k-points (npk) =  40000
     Max angular momentum in pseudopotentials (lmaxx) =  3
               file Co.pz-nd-rrkjus.UPF: wavefunction(s)  4S 3D renormalized

     Subspace diagonalization in iterative solution of the eigenvalue problem:
     a serial algorithm will be used


     G-vector sticks info
     --------------------
     sticks:   dense  smooth     PW     G-vecs:    dense   smooth      PW
     Sum         361     163     61                 9003     2997     627



     bravais-lattice index     =            4
     lattice parameter (alat)  =       4.5200  a.u.
     unit-cell volume          =     134.3554 (a.u.)^3
     number of atoms/cell      =            2
     number of atomic types    =            1
     number of electrons       =        18.00
     number of Kohn-Sham states=           13
     kinetic-energy cutoff     =      30.0000  Ry
     charge density cutoff     =     250.0000  Ry
     convergence threshold     =      1.0E-08
     mixing beta               =       0.7000
     number of iterations used =            8  plain     mixing
     Exchange-correlation      =  SLA  PZ   NOGX NOGC ( 1  1  0  0 0 0)

     celldm(1)=   4.520000  celldm(2)=   0.000000  celldm(3)=   1.680000
     celldm(4)=   0.000000  celldm(5)=   0.000000  celldm(6)=   0.000000

     crystal axes: (cart. coord. in units of alat)
               a(1) = (   1.000000   0.000000   0.000000 )  
               a(2) = (  -0.500000   0.866025   0.000000 )  
               a(3) = (   0.000000   0.000000   1.680000 )  

     reciprocal axes: (cart. coord. in units 2 pi/alat)
               b(1) = (  1.000000  0.577350 -0.000000 )  
               b(2) = (  0.000000  1.154701  0.000000 )  
               b(3) = (  0.000000 -0.000000  0.595238 )  


     PseudoPot. # 1 for Co read from file:
     ./Co.pz-nd-rrkjus.UPF
     MD5 check sum: c80159f6ca3a93d3df3cfc6468bb3c3d
     Pseudo is Ultrasoft + core correction, Zval =  9.0
     Generated by new atomic code, or converted to UPF format
     Using radial grid of  961 points,  6 beta functions with: 
                l(1) =   0
                l(2) =   0
                l(3) =   1
                l(4) =   1
                l(5) =   2
                l(6) =   2
     Q(r) pseudized with 0 coefficients 


     atomic species   valence    mass     pseudopotential
        Co             9.00    58.93300     Co( 1.00)

     Starting magnetic structure 
     atomic species   magnetization
        Co           0.700

     24 Sym. Ops., with inversion, found (12 have fractional translation)



   Cartesian axes

     site n.     atom                  positions (alat units)
         1           Co  tau(   1) = (  -0.0000000   0.5773503   0.4200000  )
         2           Co  tau(   2) = (   0.5000000   0.2886751   1.2600000  )

     number of k points=    76  Marzari-Vanderbilt smearing, width (Ry)=  0.0300
                       cart. coord. in units 2pi/alat
        k(    1) = (   0.0000000   0.0000000   0.0000000), wk =   0.0011574
        k(    2) = (   0.0000000   0.0000000   0.0992063), wk =   0.0023148
        k(    3) = (   0.0000000   0.0000000   0.1984127), wk =   0.0023148
        k(    4) = (   0.0000000   0.0000000  -0.2976190), wk =   0.0011574
        k(    5) = (   0.0000000   0.0962250   0.0000000), wk =   0.0069444
        k(    6) = (   0.0000000   0.0962250   0.0992063), wk =   0.0138889
        k(    7) = (   0.0000000   0.0962250   0.1984127), wk =   0.0138889
        k(    8) = (   0.0000000   0.0962250  -0.2976190), wk =   0.0069444
        k(    9) = (   0.0000000   0.1924501   0.0000000), wk =   0.0069444
        k(   10) = (   0.0000000   0.1924501   0.0992063), wk =   0.0138889
        k(   11) = (   0.0000000   0.1924501   0.1984127), wk =   0.0138889
        k(   12) = (   0.0000000   0.1924501  -0.2976190), wk =   0.0069444
        k(   13) = (   0.0000000   0.2886751   0.0000000), wk =   0.0069444
        k(   14) = (   0.0000000   0.2886751   0.0992063), wk =   0.0138889
        k(   15) = (   0.0000000   0.2886751   0.1984127), wk =   0.0138889
        k(   16) = (   0.0000000   0.2886751  -0.2976190), wk =   0.0069444
        k(   17) = (   0.0000000   0.3849002   0.0000000), wk =   0.0069444
        k(   18) = (   0.0000000   0.3849002   0.0992063), wk =   0.0138889
        k(   19) = (   0.0000000   0.3849002   0.1984127), wk =   0.0138889
        k(   20) = (   0.0000000   0.3849002  -0.2976190), wk =   0.0069444
        k(   21) = (   0.0000000   0.4811252   0.0000000), wk =   0.0069444
        k(   22) = (   0.0000000   0.4811252   0.0992063), wk =   0.0138889
        k(   23) = (   0.0000000   0.4811252   0.1984127), wk =   0.0138889
        k(   24) = (   0.0000000   0.4811252  -0.2976190), wk =   0.0069444
        k(   25) = (   0.0000000  -0.5773503   0.0000000), wk =   0.0034722
        k(   26) = (   0.0000000  -0.5773503   0.0992063), wk =   0.0069444
        k(   27) = (   0.0000000  -0.5773503   0.1984127), wk =   0.0069444
        k(   28) = (   0.0000000  -0.5773503  -0.2976190), wk =   0.0034722
        k(   29) = (   0.0833333   0.1443376   0.0000000), wk =   0.0069444
        k(   30) = (   0.0833333   0.1443376   0.0992063), wk =   0.0138889
        k(   31) = (   0.0833333   0.1443376   0.1984127), wk =   0.0138889
        k(   32) = (   0.0833333   0.1443376  -0.2976190), wk =   0.0069444
        k(   33) = (   0.0833333   0.2405626   0.0000000), wk =   0.0138889
        k(   34) = (   0.0833333   0.2405626   0.0992063), wk =   0.0277778
        k(   35) = (   0.0833333   0.2405626   0.1984127), wk =   0.0277778
        k(   36) = (   0.0833333   0.2405626  -0.2976190), wk =   0.0138889
        k(   37) = (   0.0833333   0.3367877   0.0000000), wk =   0.0138889
        k(   38) = (   0.0833333   0.3367877   0.0992063), wk =   0.0277778
        k(   39) = (   0.0833333   0.3367877   0.1984127), wk =   0.0277778
        k(   40) = (   0.0833333   0.3367877  -0.2976190), wk =   0.0138889
        k(   41) = (   0.0833333   0.4330127   0.0000000), wk =   0.0138889
        k(   42) = (   0.0833333   0.4330127   0.0992063), wk =   0.0277778
        k(   43) = (   0.0833333   0.4330127   0.1984127), wk =   0.0277778
        k(   44) = (   0.0833333   0.4330127  -0.2976190), wk =   0.0138889
        k(   45) = (   0.0833333   0.5292377   0.0000000), wk =   0.0138889
        k(   46) = (   0.0833333   0.5292377   0.0992063), wk =   0.0277778
        k(   47) = (   0.0833333   0.5292377   0.1984127), wk =   0.0277778
        k(   48) = (   0.0833333   0.5292377  -0.2976190), wk =   0.0138889
        k(   49) = (   0.1666667   0.2886751   0.0000000), wk =   0.0069444
        k(   50) = (   0.1666667   0.2886751   0.0992063), wk =   0.0138889
        k(   51) = (   0.1666667   0.2886751   0.1984127), wk =   0.0138889
        k(   52) = (   0.1666667   0.2886751  -0.2976190), wk =   0.0069444
        k(   53) = (   0.1666667   0.3849002   0.0000000), wk =   0.0138889
        k(   54) = (   0.1666667   0.3849002   0.0992063), wk =   0.0277778
        k(   55) = (   0.1666667   0.3849002   0.1984127), wk =   0.0277778
        k(   56) = (   0.1666667   0.3849002  -0.2976190), wk =   0.0138889
        k(   57) = (   0.1666667   0.4811252   0.0000000), wk =   0.0138889
        k(   58) = (   0.1666667   0.4811252   0.0992063), wk =   0.0277778
        k(   59) = (   0.1666667   0.4811252   0.1984127), wk =   0.0277778
        k(   60) = (   0.1666667   0.4811252  -0.2976190), wk =   0.0138889
        k(   61) = (   0.1666667   0.5773503   0.0000000), wk =   0.0069444
        k(   62) = (   0.1666667   0.5773503   0.0992063), wk =   0.0138889
        k(   63) = (   0.1666667   0.5773503   0.1984127), wk =   0.0138889
        k(   64) = (   0.1666667   0.5773503  -0.2976190), wk =   0.0069444
        k(   65) = (   0.2500000   0.4330127   0.0000000), wk =   0.0069444
        k(   66) = (   0.2500000   0.4330127   0.0992063), wk =   0.0138889
        k(   67) = (   0.2500000   0.4330127   0.1984127), wk =   0.0138889
        k(   68) = (   0.2500000   0.4330127  -0.2976190), wk =   0.0069444
        k(   69) = (   0.2500000   0.5292377   0.0000000), wk =   0.0138889
        k(   70) = (   0.2500000   0.5292377   0.0992063), wk =   0.0277778
        k(   71) = (   0.2500000   0.5292377   0.1984127), wk =   0.0277778
        k(   72) = (   0.2500000   0.5292377  -0.2976190), wk =   0.0138889
        k(   73) = (   0.3333333   0.5773503   0.0000000), wk =   0.0023148
        k(   74) = (   0.3333333   0.5773503   0.0992063), wk =   0.0046296
        k(   75) = (   0.3333333   0.5773503   0.1984127), wk =   0.0046296
        k(   76) = (   0.3333333   0.5773503  -0.2976190), wk =   0.0023148

     Dense  grid:     9003 G-vectors     FFT dimensions: (  24,  24,  40)

     Smooth grid:     2997 G-vectors     FFT dimensions: (  15,  15,  30)

     Estimated max dynamical RAM per process >      49.16 MB
     Generating pointlists ...
     new r_m :   0.4125 (alat units)  1.8645 (a.u.) for type    1

     Check: negative core charge=   -0.000020

     Initial potential from superposition of free atoms

     starting charge   17.99923, renormalised to   18.00000
     Starting wfcs are   12 randomized atomic wfcs +    1 random wfcs

     total cpu time spent up to now is        2.6 secs

     Self-consistent Calculation

     iteration #  1     ecut=    30.00 Ry     beta= 0.70
     Davidson diagonalization with overlap
     ethr =  1.00E-02,  avg # of iterations =  3.4

     total cpu time spent up to now is        8.1 secs

     total energy              =    -147.93344571 Ry
     Harris-Foulkes estimate   =    -148.13722348 Ry
     estimated scf accuracy    <       1.16828881 Ry

     total magnetization       =     4.85 Bohr mag/cell
     absolute magnetization    =     4.86 Bohr mag/cell

     iteration #  2     ecut=    30.00 Ry     beta= 0.70
     Davidson diagonalization with overlap
     ethr =  6.49E-03,  avg # of iterations =  2.4

     total cpu time spent up to now is       13.3 secs

     total energy              =    -148.16071799 Ry
     Harris-Foulkes estimate   =    -148.67034559 Ry
     estimated scf accuracy    <       1.26357076 Ry

     total magnetization       =     3.29 Bohr mag/cell
     absolute magnetization    =     3.43 Bohr mag/cell

     iteration #  3     ecut=    30.00 Ry     beta= 0.70
     Davidson diagonalization with overlap
     ethr =  6.49E-03,  avg # of iterations =  2.0

     total cpu time spent up to now is       17.6 secs

     total energy              =    -148.43400398 Ry
     Harris-Foulkes estimate   =    -148.40393148 Ry
     estimated scf accuracy    <       0.04180003 Ry

     total magnetization       =     3.56 Bohr mag/cell
     absolute magnetization    =     3.75 Bohr mag/cell

     iteration #  4     ecut=    30.00 Ry     beta= 0.70
     Davidson diagonalization with overlap
     ethr =  2.32E-04,  avg # of iterations =  2.0

     total cpu time spent up to now is       22.0 secs

     total energy              =    -148.44523860 Ry
     Harris-Foulkes estimate   =    -148.44517655 Ry
     estimated scf accuracy    <       0.00024254 Ry

     total magnetization       =     3.19 Bohr mag/cell
     absolute magnetization    =     3.44 Bohr mag/cell

     iteration #  5     ecut=    30.00 Ry     beta= 0.70
     Davidson diagonalization with overlap
     ethr =  1.35E-06,  avg # of iterations =  3.5

     total cpu time spent up to now is       28.6 secs

     total energy              =    -148.44557300 Ry
     Harris-Foulkes estimate   =    -148.44554127 Ry
     estimated scf accuracy    <       0.00006313 Ry

     total magnetization       =     3.18 Bohr mag/cell
     absolute magnetization    =     3.41 Bohr mag/cell

     iteration #  6     ecut=    30.00 Ry     beta= 0.70
     Davidson diagonalization with overlap
     ethr =  3.51E-07,  avg # of iterations =  1.7

     total cpu time spent up to now is       32.9 secs

     total energy              =    -148.44559667 Ry
     Harris-Foulkes estimate   =    -148.44558967 Ry
     estimated scf accuracy    <       0.00000523 Ry

     total magnetization       =     3.18 Bohr mag/cell
     absolute magnetization    =     3.39 Bohr mag/cell

     iteration #  7     ecut=    30.00 Ry     beta= 0.70
     Davidson diagonalization with overlap
     ethr =  2.91E-08,  avg # of iterations =  2.4

     total cpu time spent up to now is       37.9 secs

     total energy              =    -148.44559980 Ry
     Harris-Foulkes estimate   =    -148.44559992 Ry
     estimated scf accuracy    <       0.00000062 Ry

     total magnetization       =     3.18 Bohr mag/cell
     absolute magnetization    =     3.39 Bohr mag/cell

     iteration #  8     ecut=    30.00 Ry     beta= 0.70
     Davidson diagonalization with overlap
     ethr =  3.46E-09,  avg # of iterations =  2.1

     total cpu time spent up to now is       42.9 secs

     total energy              =    -148.44560024 Ry
     Harris-Foulkes estimate   =    -148.44560034 Ry
     estimated scf accuracy    <       0.00000018 Ry

     total magnetization       =     3.17 Bohr mag/cell
     absolute magnetization    =     3.38 Bohr mag/cell

     iteration #  9     ecut=    30.00 Ry     beta= 0.70
     Davidson diagonalization with overlap
     ethr =  1.01E-09,  avg # of iterations =  2.2

     total cpu time spent up to now is       47.7 secs

     total energy              =    -148.44560029 Ry
     Harris-Foulkes estimate   =    -148.44560031 Ry
     estimated scf accuracy    <       0.00000004 Ry

     total magnetization       =     3.17 Bohr mag/cell
     absolute magnetization    =     3.38 Bohr mag/cell

     iteration # 10     ecut=    30.00 Ry     beta= 0.70
     Davidson diagonalization with overlap
     ethr =  2.09E-10,  avg # of iterations =  1.9

     Magnetic moment per site:
     atom:    1    charge:    7.5528    magn:    1.6361    constr:    0.0000
     atom:    2    charge:    7.5528    magn:    1.6361    constr:    0.0000

     total cpu time spent up to now is       52.1 secs

     End of self-consistent calculation

     Number of k-points >= 100: set verbosity='high' to print the bands.

     the Fermi energy is    15.4120 ev

!    total energy              =    -148.44560030 Ry
     Harris-Foulkes estimate   =    -148.44560031 Ry
     estimated scf accuracy    <          1.9E-09 Ry

     The total energy is the sum of the following terms:

     one-electron contribution =      11.57674821 Ry
     hartree contribution      =      20.02940657 Ry
     xc contribution           =     -64.97526200 Ry
     ewald contribution        =    -115.08460214 Ry
     smearing contrib. (-TS)   =       0.00810907 Ry

     total magnetization       =     3.17 Bohr mag/cell
     absolute magnetization    =     3.38 Bohr mag/cell

     convergence has been achieved in  10 iterations

     Forces acting on atoms (cartesian axes, Ry/au):

     atom    1 type  1   force =     0.00000000    0.00000000    0.00000000
     atom    2 type  1   force =     0.00000000   -0.00000000    0.00000000

     Total force =     0.000000     Total SCF correction =     0.000000


     Computing stress (Cartesian axis) and pressure

          total   stress  (Ry/bohr**3)                   (kbar)     P=   17.74
   0.00040679  -0.00000000   0.00000000         59.84     -0.00      0.00
  -0.00000000   0.00040679   0.00000000         -0.00     59.84      0.00
   0.00000000   0.00000000  -0.00045170          0.00      0.00    -66.45


     Writing output data file Co.HCP.save/

     init_run     :      2.21s CPU      2.29s WALL (       1 calls)
     electrons    :     48.88s CPU     49.55s WALL (       1 calls)
     forces       :      1.02s CPU      1.02s WALL (       1 calls)
     stress       :      1.64s CPU      1.65s WALL (       1 calls)

     Called by init_run:
     wfcinit      :      1.27s CPU      1.32s WALL (       1 calls)
     potinit      :      0.06s CPU      0.06s WALL (       1 calls)
     hinit0       :      0.73s CPU      0.75s WALL (       1 calls)

     Called by electrons:
     c_bands      :     40.24s CPU     40.84s WALL (      10 calls)
     sum_band     :      7.20s CPU      7.26s WALL (      10 calls)
     v_of_rho     :      0.23s CPU      0.23s WALL (      11 calls)
     newd         :      1.24s CPU      1.26s WALL (      11 calls)
     mix_rho      :      0.08s CPU      0.08s WALL (      10 calls)

     Called by c_bands:
     init_us_2    :      0.89s CPU      0.90s WALL (    3496 calls)
     cegterg      :     38.36s CPU     38.93s WALL (    1520 calls)

     Called by sum_band:
     sum_band:bec :      0.14s CPU      0.14s WALL (    1520 calls)
     addusdens    :      1.94s CPU      1.95s WALL (      10 calls)

     Called by *egterg:
     h_psi        :     23.01s CPU     23.39s WALL (    5259 calls)
     s_psi        :      3.71s CPU      3.77s WALL (    5259 calls)
     g_psi        :      0.10s CPU      0.10s WALL (    3587 calls)
     cdiaghg      :      3.76s CPU      3.82s WALL (    5107 calls)

     Called by h_psi:
     h_psi:pot    :     22.92s CPU     23.30s WALL (    5259 calls)
     h_psi:calbec :      4.17s CPU      4.24s WALL (    5259 calls)
     vloc_psi     :     15.06s CPU     15.31s WALL (    5259 calls)
     add_vuspsi   :      3.66s CPU      3.72s WALL (    5259 calls)

     General routines
     calbec       :      6.39s CPU      6.48s WALL (    7539 calls)
     fft          :      0.16s CPU      0.16s WALL (     125 calls)
     ffts         :      0.02s CPU      0.02s WALL (      42 calls)
     fftw         :     14.21s CPU     14.44s WALL (  125460 calls)
     interpolate  :      0.04s CPU      0.04s WALL (      22 calls)

     Parallel routines

     PWSCF        :     54.10s CPU     54.91s WALL


   This run was terminated on:  17:32:25  19Feb2020            

=------------------------------------------------------------------------------=
   JOB DONE.
=------------------------------------------------------------------------------=
