     Message from routine get_command_line:
     unexpected argument # 2     :-input

     Program PWSCF v.6.4.1 starts on 19Feb2020 at 17:39:14 

     This program is part of the open-source Quantum ESPRESSO suite
     for quantum simulation of materials; please cite
         "P. Giannozzi et al., J. Phys.:Condens. Matter 21 395502 (2009);
         "P. Giannozzi et al., J. Phys.:Condens. Matter 29 465901 (2017);
          URL http://www.quantum-espresso.org", 
     in publications or presentations arising from this work. More details at
     http://www.quantum-espresso.org/quote

     Parallel version (MPI), running on     1 processors

     MPI processes distributed on     1 nodes
     Waiting for input...
     Reading input from standard input

     Current dimensions of program PWSCF are:
     Max number of different atomic species (ntypx) = 10
     Max number of k-points (npk) =  40000
     Max angular momentum in pseudopotentials (lmaxx) =  3
               file Co.pz-nd-rrkjus.UPF: wavefunction(s)  4S 3D renormalized

     Subspace diagonalization in iterative solution of the eigenvalue problem:
     a serial algorithm will be used


     G-vector sticks info
     --------------------
     sticks:   dense  smooth     PW     G-vecs:    dense   smooth      PW
     Sum         361     163     61                 8677     2863     603



     bravais-lattice index     =            4
     lattice parameter (alat)  =       4.5400  a.u.
     unit-cell volume          =     129.6636 (a.u.)^3
     number of atoms/cell      =            2
     number of atomic types    =            1
     number of electrons       =        18.00
     number of Kohn-Sham states=           13
     kinetic-energy cutoff     =      30.0000  Ry
     charge density cutoff     =     250.0000  Ry
     convergence threshold     =      1.0E-08
     mixing beta               =       0.7000
     number of iterations used =            8  plain     mixing
     Exchange-correlation      =  SLA  PZ   NOGX NOGC ( 1  1  0  0 0 0)

     celldm(1)=   4.540000  celldm(2)=   0.000000  celldm(3)=   1.600000
     celldm(4)=   0.000000  celldm(5)=   0.000000  celldm(6)=   0.000000

     crystal axes: (cart. coord. in units of alat)
               a(1) = (   1.000000   0.000000   0.000000 )  
               a(2) = (  -0.500000   0.866025   0.000000 )  
               a(3) = (   0.000000   0.000000   1.600000 )  

     reciprocal axes: (cart. coord. in units 2 pi/alat)
               b(1) = (  1.000000  0.577350 -0.000000 )  
               b(2) = (  0.000000  1.154701  0.000000 )  
               b(3) = (  0.000000 -0.000000  0.625000 )  


     PseudoPot. # 1 for Co read from file:
     ./Co.pz-nd-rrkjus.UPF
     MD5 check sum: c80159f6ca3a93d3df3cfc6468bb3c3d
     Pseudo is Ultrasoft + core correction, Zval =  9.0
     Generated by new atomic code, or converted to UPF format
     Using radial grid of  961 points,  6 beta functions with: 
                l(1) =   0
                l(2) =   0
                l(3) =   1
                l(4) =   1
                l(5) =   2
                l(6) =   2
     Q(r) pseudized with 0 coefficients 


     atomic species   valence    mass     pseudopotential
        Co             9.00    58.93300     Co( 1.00)

     Starting magnetic structure 
     atomic species   magnetization
        Co           0.700

     24 Sym. Ops., with inversion, found (12 have fractional translation)



   Cartesian axes

     site n.     atom                  positions (alat units)
         1           Co  tau(   1) = (  -0.0000000   0.5773503   0.4000000  )
         2           Co  tau(   2) = (   0.5000000   0.2886751   1.2000000  )

     number of k points=    76  Marzari-Vanderbilt smearing, width (Ry)=  0.0300
                       cart. coord. in units 2pi/alat
        k(    1) = (   0.0000000   0.0000000   0.0000000), wk =   0.0011574
        k(    2) = (   0.0000000   0.0000000   0.1041667), wk =   0.0023148
        k(    3) = (   0.0000000   0.0000000   0.2083333), wk =   0.0023148
        k(    4) = (   0.0000000   0.0000000  -0.3125000), wk =   0.0011574
        k(    5) = (   0.0000000   0.0962250   0.0000000), wk =   0.0069444
        k(    6) = (   0.0000000   0.0962250   0.1041667), wk =   0.0138889
        k(    7) = (   0.0000000   0.0962250   0.2083333), wk =   0.0138889
        k(    8) = (   0.0000000   0.0962250  -0.3125000), wk =   0.0069444
        k(    9) = (   0.0000000   0.1924501   0.0000000), wk =   0.0069444
        k(   10) = (   0.0000000   0.1924501   0.1041667), wk =   0.0138889
        k(   11) = (   0.0000000   0.1924501   0.2083333), wk =   0.0138889
        k(   12) = (   0.0000000   0.1924501  -0.3125000), wk =   0.0069444
        k(   13) = (   0.0000000   0.2886751   0.0000000), wk =   0.0069444
        k(   14) = (   0.0000000   0.2886751   0.1041667), wk =   0.0138889
        k(   15) = (   0.0000000   0.2886751   0.2083333), wk =   0.0138889
        k(   16) = (   0.0000000   0.2886751  -0.3125000), wk =   0.0069444
        k(   17) = (   0.0000000   0.3849002   0.0000000), wk =   0.0069444
        k(   18) = (   0.0000000   0.3849002   0.1041667), wk =   0.0138889
        k(   19) = (   0.0000000   0.3849002   0.2083333), wk =   0.0138889
        k(   20) = (   0.0000000   0.3849002  -0.3125000), wk =   0.0069444
        k(   21) = (   0.0000000   0.4811252   0.0000000), wk =   0.0069444
        k(   22) = (   0.0000000   0.4811252   0.1041667), wk =   0.0138889
        k(   23) = (   0.0000000   0.4811252   0.2083333), wk =   0.0138889
        k(   24) = (   0.0000000   0.4811252  -0.3125000), wk =   0.0069444
        k(   25) = (   0.0000000  -0.5773503   0.0000000), wk =   0.0034722
        k(   26) = (   0.0000000  -0.5773503   0.1041667), wk =   0.0069444
        k(   27) = (   0.0000000  -0.5773503   0.2083333), wk =   0.0069444
        k(   28) = (   0.0000000  -0.5773503  -0.3125000), wk =   0.0034722
        k(   29) = (   0.0833333   0.1443376   0.0000000), wk =   0.0069444
        k(   30) = (   0.0833333   0.1443376   0.1041667), wk =   0.0138889
        k(   31) = (   0.0833333   0.1443376   0.2083333), wk =   0.0138889
        k(   32) = (   0.0833333   0.1443376  -0.3125000), wk =   0.0069444
        k(   33) = (   0.0833333   0.2405626   0.0000000), wk =   0.0138889
        k(   34) = (   0.0833333   0.2405626   0.1041667), wk =   0.0277778
        k(   35) = (   0.0833333   0.2405626   0.2083333), wk =   0.0277778
        k(   36) = (   0.0833333   0.2405626  -0.3125000), wk =   0.0138889
        k(   37) = (   0.0833333   0.3367877   0.0000000), wk =   0.0138889
        k(   38) = (   0.0833333   0.3367877   0.1041667), wk =   0.0277778
        k(   39) = (   0.0833333   0.3367877   0.2083333), wk =   0.0277778
        k(   40) = (   0.0833333   0.3367877  -0.3125000), wk =   0.0138889
        k(   41) = (   0.0833333   0.4330127   0.0000000), wk =   0.0138889
        k(   42) = (   0.0833333   0.4330127   0.1041667), wk =   0.0277778
        k(   43) = (   0.0833333   0.4330127   0.2083333), wk =   0.0277778
        k(   44) = (   0.0833333   0.4330127  -0.3125000), wk =   0.0138889
        k(   45) = (   0.0833333   0.5292377   0.0000000), wk =   0.0138889
        k(   46) = (   0.0833333   0.5292377   0.1041667), wk =   0.0277778
        k(   47) = (   0.0833333   0.5292377   0.2083333), wk =   0.0277778
        k(   48) = (   0.0833333   0.5292377  -0.3125000), wk =   0.0138889
        k(   49) = (   0.1666667   0.2886751   0.0000000), wk =   0.0069444
        k(   50) = (   0.1666667   0.2886751   0.1041667), wk =   0.0138889
        k(   51) = (   0.1666667   0.2886751   0.2083333), wk =   0.0138889
        k(   52) = (   0.1666667   0.2886751  -0.3125000), wk =   0.0069444
        k(   53) = (   0.1666667   0.3849002   0.0000000), wk =   0.0138889
        k(   54) = (   0.1666667   0.3849002   0.1041667), wk =   0.0277778
        k(   55) = (   0.1666667   0.3849002   0.2083333), wk =   0.0277778
        k(   56) = (   0.1666667   0.3849002  -0.3125000), wk =   0.0138889
        k(   57) = (   0.1666667   0.4811252   0.0000000), wk =   0.0138889
        k(   58) = (   0.1666667   0.4811252   0.1041667), wk =   0.0277778
        k(   59) = (   0.1666667   0.4811252   0.2083333), wk =   0.0277778
        k(   60) = (   0.1666667   0.4811252  -0.3125000), wk =   0.0138889
        k(   61) = (   0.1666667   0.5773503   0.0000000), wk =   0.0069444
        k(   62) = (   0.1666667   0.5773503   0.1041667), wk =   0.0138889
        k(   63) = (   0.1666667   0.5773503   0.2083333), wk =   0.0138889
        k(   64) = (   0.1666667   0.5773503  -0.3125000), wk =   0.0069444
        k(   65) = (   0.2500000   0.4330127   0.0000000), wk =   0.0069444
        k(   66) = (   0.2500000   0.4330127   0.1041667), wk =   0.0138889
        k(   67) = (   0.2500000   0.4330127   0.2083333), wk =   0.0138889
        k(   68) = (   0.2500000   0.4330127  -0.3125000), wk =   0.0069444
        k(   69) = (   0.2500000   0.5292377   0.0000000), wk =   0.0138889
        k(   70) = (   0.2500000   0.5292377   0.1041667), wk =   0.0277778
        k(   71) = (   0.2500000   0.5292377   0.2083333), wk =   0.0277778
        k(   72) = (   0.2500000   0.5292377  -0.3125000), wk =   0.0138889
        k(   73) = (   0.3333333   0.5773503   0.0000000), wk =   0.0023148
        k(   74) = (   0.3333333   0.5773503   0.1041667), wk =   0.0046296
        k(   75) = (   0.3333333   0.5773503   0.2083333), wk =   0.0046296
        k(   76) = (   0.3333333   0.5773503  -0.3125000), wk =   0.0023148

     Dense  grid:     8677 G-vectors     FFT dimensions: (  24,  24,  40)

     Smooth grid:     2863 G-vectors     FFT dimensions: (  15,  15,  30)

     Estimated max dynamical RAM per process >      47.53 MB
     Generating pointlists ...
     new r_m :   0.4070 (alat units)  1.8476 (a.u.) for type    1

     Check: negative core charge=   -0.000019

     Initial potential from superposition of free atoms

     starting charge   17.99923, renormalised to   18.00000
     Starting wfcs are   12 randomized atomic wfcs +    1 random wfcs

     total cpu time spent up to now is        2.4 secs

     Self-consistent Calculation

     iteration #  1     ecut=    30.00 Ry     beta= 0.70
     Davidson diagonalization with overlap
     ethr =  1.00E-02,  avg # of iterations =  3.4

     total cpu time spent up to now is        7.9 secs

     total energy              =    -147.94912226 Ry
     Harris-Foulkes estimate   =    -148.11555323 Ry
     estimated scf accuracy    <       1.14276710 Ry

     total magnetization       =     4.79 Bohr mag/cell
     absolute magnetization    =     4.80 Bohr mag/cell

     iteration #  2     ecut=    30.00 Ry     beta= 0.70
     Davidson diagonalization with overlap
     ethr =  6.35E-03,  avg # of iterations =  2.3

     total cpu time spent up to now is       12.8 secs

     total energy              =    -148.18202307 Ry
     Harris-Foulkes estimate   =    -148.63650981 Ry
     estimated scf accuracy    <       1.12564219 Ry

     total magnetization       =     3.30 Bohr mag/cell
     absolute magnetization    =     3.43 Bohr mag/cell

     iteration #  3     ecut=    30.00 Ry     beta= 0.70
     Davidson diagonalization with overlap
     ethr =  6.25E-03,  avg # of iterations =  2.0

     total cpu time spent up to now is       16.8 secs

     total energy              =    -148.43267955 Ry
     Harris-Foulkes estimate   =    -148.40323623 Ry
     estimated scf accuracy    <       0.04310882 Ry

     total magnetization       =     3.50 Bohr mag/cell
     absolute magnetization    =     3.68 Bohr mag/cell

     iteration #  4     ecut=    30.00 Ry     beta= 0.70
     Davidson diagonalization with overlap
     ethr =  2.39E-04,  avg # of iterations =  2.0

     total cpu time spent up to now is       21.0 secs

     total energy              =    -148.44432663 Ry
     Harris-Foulkes estimate   =    -148.44420427 Ry
     estimated scf accuracy    <       0.00033584 Ry

     total magnetization       =     3.07 Bohr mag/cell
     absolute magnetization    =     3.31 Bohr mag/cell

     iteration #  5     ecut=    30.00 Ry     beta= 0.70
     Davidson diagonalization with overlap
     ethr =  1.87E-06,  avg # of iterations =  3.5

     total cpu time spent up to now is       27.1 secs

     total energy              =    -148.44471769 Ry
     Harris-Foulkes estimate   =    -148.44468179 Ry
     estimated scf accuracy    <       0.00013240 Ry

     total magnetization       =     3.02 Bohr mag/cell
     absolute magnetization    =     3.24 Bohr mag/cell

     iteration #  6     ecut=    30.00 Ry     beta= 0.70
     Davidson diagonalization with overlap
     ethr =  7.36E-07,  avg # of iterations =  1.9

     total cpu time spent up to now is       31.4 secs

     total energy              =    -148.44481526 Ry
     Harris-Foulkes estimate   =    -148.44481320 Ry
     estimated scf accuracy    <       0.00001978 Ry

     total magnetization       =     2.97 Bohr mag/cell
     absolute magnetization    =     3.18 Bohr mag/cell

     iteration #  7     ecut=    30.00 Ry     beta= 0.70
     Davidson diagonalization with overlap
     ethr =  1.10E-07,  avg # of iterations =  1.9

     total cpu time spent up to now is       36.0 secs

     total energy              =    -148.44482629 Ry
     Harris-Foulkes estimate   =    -148.44482656 Ry
     estimated scf accuracy    <       0.00000129 Ry

     total magnetization       =     2.96 Bohr mag/cell
     absolute magnetization    =     3.16 Bohr mag/cell

     iteration #  8     ecut=    30.00 Ry     beta= 0.70
     Davidson diagonalization with overlap
     ethr =  7.18E-09,  avg # of iterations =  2.1

     total cpu time spent up to now is       40.5 secs

     total energy              =    -148.44482767 Ry
     Harris-Foulkes estimate   =    -148.44482767 Ry
     estimated scf accuracy    <       0.00000003 Ry

     total magnetization       =     2.95 Bohr mag/cell
     absolute magnetization    =     3.15 Bohr mag/cell

     iteration #  9     ecut=    30.00 Ry     beta= 0.70
     Davidson diagonalization with overlap
     ethr =  1.56E-10,  avg # of iterations =  3.1

     Magnetic moment per site:
     atom:    1    charge:    7.5456    magn:    1.5195    constr:    0.0000
     atom:    2    charge:    7.5456    magn:    1.5195    constr:    0.0000

     total cpu time spent up to now is       46.1 secs

     End of self-consistent calculation

     Number of k-points >= 100: set verbosity='high' to print the bands.

     the Fermi energy is    16.0908 ev

!    total energy              =    -148.44482773 Ry
     Harris-Foulkes estimate   =    -148.44482773 Ry
     estimated scf accuracy    <          2.0E-09 Ry

     The total energy is the sum of the following terms:

     one-electron contribution =      13.54918302 Ry
     hartree contribution      =      19.48343333 Ry
     xc contribution           =     -65.02395398 Ry
     ewald contribution        =    -116.46065287 Ry
     smearing contrib. (-TS)   =       0.00716277 Ry

     total magnetization       =     2.95 Bohr mag/cell
     absolute magnetization    =     3.14 Bohr mag/cell

     convergence has been achieved in   9 iterations

     Forces acting on atoms (cartesian axes, Ry/au):

     atom    1 type  1   force =     0.00000000   -0.00000000    0.00000000
     atom    2 type  1   force =     0.00000000    0.00000000    0.00000000

     Total force =     0.000000     Total SCF correction =     0.000000


     Computing stress (Cartesian axis) and pressure

          total   stress  (Ry/bohr**3)                   (kbar)     P=  104.05
   0.00061304  -0.00000000   0.00000000         90.18     -0.00      0.00
  -0.00000000   0.00061304   0.00000000         -0.00     90.18      0.00
   0.00000000  -0.00000000   0.00089597          0.00     -0.00    131.80


     Writing output data file Co.HCP.save/

     init_run     :      2.10s CPU      2.16s WALL (       1 calls)
     electrons    :     43.05s CPU     43.69s WALL (       1 calls)
     forces       :      0.97s CPU      0.98s WALL (       1 calls)
     stress       :      1.59s CPU      1.60s WALL (       1 calls)

     Called by init_run:
     wfcinit      :      1.21s CPU      1.22s WALL (       1 calls)
     potinit      :      0.06s CPU      0.06s WALL (       1 calls)
     hinit0       :      0.72s CPU      0.75s WALL (       1 calls)

     Called by electrons:
     c_bands      :     35.64s CPU     36.19s WALL (       9 calls)
     sum_band     :      6.19s CPU      6.27s WALL (       9 calls)
     v_of_rho     :      0.19s CPU      0.20s WALL (      10 calls)
     newd         :      1.05s CPU      1.07s WALL (      10 calls)
     mix_rho      :      0.06s CPU      0.06s WALL (       9 calls)

     Called by c_bands:
     init_us_2    :      0.78s CPU      0.80s WALL (    3192 calls)
     cegterg      :     34.01s CPU     34.54s WALL (    1368 calls)

     Called by sum_band:
     sum_band:bec :      0.13s CPU      0.13s WALL (    1368 calls)
     addusdens    :      1.64s CPU      1.66s WALL (       9 calls)

     Called by *egterg:
     h_psi        :     20.14s CPU     20.50s WALL (    4892 calls)
     s_psi        :      3.26s CPU      3.32s WALL (    4892 calls)
     g_psi        :      0.09s CPU      0.09s WALL (    3372 calls)
     cdiaghg      :      3.64s CPU      3.68s WALL (    4740 calls)

     Called by h_psi:
     h_psi:pot    :     20.07s CPU     20.43s WALL (    4892 calls)
     h_psi:calbec :      3.60s CPU      3.66s WALL (    4892 calls)
     vloc_psi     :     13.21s CPU     13.44s WALL (    4892 calls)
     add_vuspsi   :      3.23s CPU      3.29s WALL (    4892 calls)

     General routines
     calbec       :      5.59s CPU      5.68s WALL (    7020 calls)
     fft          :      0.15s CPU      0.15s WALL (     114 calls)
     ffts         :      0.02s CPU      0.02s WALL (      38 calls)
     fftw         :     12.30s CPU     12.53s WALL (  114804 calls)
     interpolate  :      0.03s CPU      0.03s WALL (      20 calls)

     Parallel routines

     PWSCF        :     48.06s CPU     48.82s WALL


   This run was terminated on:  17:40: 3  19Feb2020            

=------------------------------------------------------------------------------=
   JOB DONE.
=------------------------------------------------------------------------------=
