     Message from routine get_command_line:
     unexpected argument # 2     :-input

     Program PWSCF v.6.4.1 starts on 19Feb2020 at 17:28:54 

     This program is part of the open-source Quantum ESPRESSO suite
     for quantum simulation of materials; please cite
         "P. Giannozzi et al., J. Phys.:Condens. Matter 21 395502 (2009);
         "P. Giannozzi et al., J. Phys.:Condens. Matter 29 465901 (2017);
          URL http://www.quantum-espresso.org", 
     in publications or presentations arising from this work. More details at
     http://www.quantum-espresso.org/quote

     Parallel version (MPI), running on     1 processors

     MPI processes distributed on     1 nodes
     Waiting for input...
     Reading input from standard input

     Current dimensions of program PWSCF are:
     Max number of different atomic species (ntypx) = 10
     Max number of k-points (npk) =  40000
     Max angular momentum in pseudopotentials (lmaxx) =  3
               file Co.pz-nd-rrkjus.UPF: wavefunction(s)  4S 3D renormalized

     Subspace diagonalization in iterative solution of the eigenvalue problem:
     a serial algorithm will be used


     G-vector sticks info
     --------------------
     sticks:   dense  smooth     PW     G-vecs:    dense   smooth      PW
     Sum         361     163     61                 8629     2863     603



     bravais-lattice index     =            4
     lattice parameter (alat)  =       4.5200  a.u.
     unit-cell volume          =     129.5570 (a.u.)^3
     number of atoms/cell      =            2
     number of atomic types    =            1
     number of electrons       =        18.00
     number of Kohn-Sham states=           13
     kinetic-energy cutoff     =      30.0000  Ry
     charge density cutoff     =     250.0000  Ry
     convergence threshold     =      1.0E-08
     mixing beta               =       0.7000
     number of iterations used =            8  plain     mixing
     Exchange-correlation      =  SLA  PZ   NOGX NOGC ( 1  1  0  0 0 0)

     celldm(1)=   4.520000  celldm(2)=   0.000000  celldm(3)=   1.620000
     celldm(4)=   0.000000  celldm(5)=   0.000000  celldm(6)=   0.000000

     crystal axes: (cart. coord. in units of alat)
               a(1) = (   1.000000   0.000000   0.000000 )  
               a(2) = (  -0.500000   0.866025   0.000000 )  
               a(3) = (   0.000000   0.000000   1.620000 )  

     reciprocal axes: (cart. coord. in units 2 pi/alat)
               b(1) = (  1.000000  0.577350 -0.000000 )  
               b(2) = (  0.000000  1.154701  0.000000 )  
               b(3) = (  0.000000 -0.000000  0.617284 )  


     PseudoPot. # 1 for Co read from file:
     ./Co.pz-nd-rrkjus.UPF
     MD5 check sum: c80159f6ca3a93d3df3cfc6468bb3c3d
     Pseudo is Ultrasoft + core correction, Zval =  9.0
     Generated by new atomic code, or converted to UPF format
     Using radial grid of  961 points,  6 beta functions with: 
                l(1) =   0
                l(2) =   0
                l(3) =   1
                l(4) =   1
                l(5) =   2
                l(6) =   2
     Q(r) pseudized with 0 coefficients 


     atomic species   valence    mass     pseudopotential
        Co             9.00    58.93300     Co( 1.00)

     Starting magnetic structure 
     atomic species   magnetization
        Co           0.700

     24 Sym. Ops., with inversion, found (12 have fractional translation)



   Cartesian axes

     site n.     atom                  positions (alat units)
         1           Co  tau(   1) = (  -0.0000000   0.5773503   0.4050000  )
         2           Co  tau(   2) = (   0.5000000   0.2886751   1.2150000  )

     number of k points=    76  Marzari-Vanderbilt smearing, width (Ry)=  0.0300
                       cart. coord. in units 2pi/alat
        k(    1) = (   0.0000000   0.0000000   0.0000000), wk =   0.0011574
        k(    2) = (   0.0000000   0.0000000   0.1028807), wk =   0.0023148
        k(    3) = (   0.0000000   0.0000000   0.2057613), wk =   0.0023148
        k(    4) = (   0.0000000   0.0000000  -0.3086420), wk =   0.0011574
        k(    5) = (   0.0000000   0.0962250   0.0000000), wk =   0.0069444
        k(    6) = (   0.0000000   0.0962250   0.1028807), wk =   0.0138889
        k(    7) = (   0.0000000   0.0962250   0.2057613), wk =   0.0138889
        k(    8) = (   0.0000000   0.0962250  -0.3086420), wk =   0.0069444
        k(    9) = (   0.0000000   0.1924501   0.0000000), wk =   0.0069444
        k(   10) = (   0.0000000   0.1924501   0.1028807), wk =   0.0138889
        k(   11) = (   0.0000000   0.1924501   0.2057613), wk =   0.0138889
        k(   12) = (   0.0000000   0.1924501  -0.3086420), wk =   0.0069444
        k(   13) = (   0.0000000   0.2886751   0.0000000), wk =   0.0069444
        k(   14) = (   0.0000000   0.2886751   0.1028807), wk =   0.0138889
        k(   15) = (   0.0000000   0.2886751   0.2057613), wk =   0.0138889
        k(   16) = (   0.0000000   0.2886751  -0.3086420), wk =   0.0069444
        k(   17) = (   0.0000000   0.3849002   0.0000000), wk =   0.0069444
        k(   18) = (   0.0000000   0.3849002   0.1028807), wk =   0.0138889
        k(   19) = (   0.0000000   0.3849002   0.2057613), wk =   0.0138889
        k(   20) = (   0.0000000   0.3849002  -0.3086420), wk =   0.0069444
        k(   21) = (   0.0000000   0.4811252   0.0000000), wk =   0.0069444
        k(   22) = (   0.0000000   0.4811252   0.1028807), wk =   0.0138889
        k(   23) = (   0.0000000   0.4811252   0.2057613), wk =   0.0138889
        k(   24) = (   0.0000000   0.4811252  -0.3086420), wk =   0.0069444
        k(   25) = (   0.0000000  -0.5773503   0.0000000), wk =   0.0034722
        k(   26) = (   0.0000000  -0.5773503   0.1028807), wk =   0.0069444
        k(   27) = (   0.0000000  -0.5773503   0.2057613), wk =   0.0069444
        k(   28) = (   0.0000000  -0.5773503  -0.3086420), wk =   0.0034722
        k(   29) = (   0.0833333   0.1443376   0.0000000), wk =   0.0069444
        k(   30) = (   0.0833333   0.1443376   0.1028807), wk =   0.0138889
        k(   31) = (   0.0833333   0.1443376   0.2057613), wk =   0.0138889
        k(   32) = (   0.0833333   0.1443376  -0.3086420), wk =   0.0069444
        k(   33) = (   0.0833333   0.2405626   0.0000000), wk =   0.0138889
        k(   34) = (   0.0833333   0.2405626   0.1028807), wk =   0.0277778
        k(   35) = (   0.0833333   0.2405626   0.2057613), wk =   0.0277778
        k(   36) = (   0.0833333   0.2405626  -0.3086420), wk =   0.0138889
        k(   37) = (   0.0833333   0.3367877   0.0000000), wk =   0.0138889
        k(   38) = (   0.0833333   0.3367877   0.1028807), wk =   0.0277778
        k(   39) = (   0.0833333   0.3367877   0.2057613), wk =   0.0277778
        k(   40) = (   0.0833333   0.3367877  -0.3086420), wk =   0.0138889
        k(   41) = (   0.0833333   0.4330127   0.0000000), wk =   0.0138889
        k(   42) = (   0.0833333   0.4330127   0.1028807), wk =   0.0277778
        k(   43) = (   0.0833333   0.4330127   0.2057613), wk =   0.0277778
        k(   44) = (   0.0833333   0.4330127  -0.3086420), wk =   0.0138889
        k(   45) = (   0.0833333   0.5292377   0.0000000), wk =   0.0138889
        k(   46) = (   0.0833333   0.5292377   0.1028807), wk =   0.0277778
        k(   47) = (   0.0833333   0.5292377   0.2057613), wk =   0.0277778
        k(   48) = (   0.0833333   0.5292377  -0.3086420), wk =   0.0138889
        k(   49) = (   0.1666667   0.2886751   0.0000000), wk =   0.0069444
        k(   50) = (   0.1666667   0.2886751   0.1028807), wk =   0.0138889
        k(   51) = (   0.1666667   0.2886751   0.2057613), wk =   0.0138889
        k(   52) = (   0.1666667   0.2886751  -0.3086420), wk =   0.0069444
        k(   53) = (   0.1666667   0.3849002   0.0000000), wk =   0.0138889
        k(   54) = (   0.1666667   0.3849002   0.1028807), wk =   0.0277778
        k(   55) = (   0.1666667   0.3849002   0.2057613), wk =   0.0277778
        k(   56) = (   0.1666667   0.3849002  -0.3086420), wk =   0.0138889
        k(   57) = (   0.1666667   0.4811252   0.0000000), wk =   0.0138889
        k(   58) = (   0.1666667   0.4811252   0.1028807), wk =   0.0277778
        k(   59) = (   0.1666667   0.4811252   0.2057613), wk =   0.0277778
        k(   60) = (   0.1666667   0.4811252  -0.3086420), wk =   0.0138889
        k(   61) = (   0.1666667   0.5773503   0.0000000), wk =   0.0069444
        k(   62) = (   0.1666667   0.5773503   0.1028807), wk =   0.0138889
        k(   63) = (   0.1666667   0.5773503   0.2057613), wk =   0.0138889
        k(   64) = (   0.1666667   0.5773503  -0.3086420), wk =   0.0069444
        k(   65) = (   0.2500000   0.4330127   0.0000000), wk =   0.0069444
        k(   66) = (   0.2500000   0.4330127   0.1028807), wk =   0.0138889
        k(   67) = (   0.2500000   0.4330127   0.2057613), wk =   0.0138889
        k(   68) = (   0.2500000   0.4330127  -0.3086420), wk =   0.0069444
        k(   69) = (   0.2500000   0.5292377   0.0000000), wk =   0.0138889
        k(   70) = (   0.2500000   0.5292377   0.1028807), wk =   0.0277778
        k(   71) = (   0.2500000   0.5292377   0.2057613), wk =   0.0277778
        k(   72) = (   0.2500000   0.5292377  -0.3086420), wk =   0.0138889
        k(   73) = (   0.3333333   0.5773503   0.0000000), wk =   0.0023148
        k(   74) = (   0.3333333   0.5773503   0.1028807), wk =   0.0046296
        k(   75) = (   0.3333333   0.5773503   0.2057613), wk =   0.0046296
        k(   76) = (   0.3333333   0.5773503  -0.3086420), wk =   0.0023148

     Dense  grid:     8629 G-vectors     FFT dimensions: (  24,  24,  40)

     Smooth grid:     2863 G-vectors     FFT dimensions: (  15,  15,  30)

     Estimated max dynamical RAM per process >      47.31 MB
     Generating pointlists ...
     new r_m :   0.4103 (alat units)  1.8546 (a.u.) for type    1

     Check: negative core charge=   -0.000016

     Initial potential from superposition of free atoms

     starting charge   17.99923, renormalised to   18.00000
     Starting wfcs are   12 randomized atomic wfcs +    1 random wfcs

     total cpu time spent up to now is        2.5 secs

     Self-consistent Calculation

     iteration #  1     ecut=    30.00 Ry     beta= 0.70
     Davidson diagonalization with overlap
     ethr =  1.00E-02,  avg # of iterations =  3.4

     total cpu time spent up to now is        8.0 secs

     total energy              =    -147.94876115 Ry
     Harris-Foulkes estimate   =    -148.11640162 Ry
     estimated scf accuracy    <       1.14439825 Ry

     total magnetization       =     4.79 Bohr mag/cell
     absolute magnetization    =     4.80 Bohr mag/cell

     iteration #  2     ecut=    30.00 Ry     beta= 0.70
     Davidson diagonalization with overlap
     ethr =  6.36E-03,  avg # of iterations =  2.3

     total cpu time spent up to now is       13.0 secs

     total energy              =    -148.18144216 Ry
     Harris-Foulkes estimate   =    -148.63738819 Ry
     estimated scf accuracy    <       1.12914177 Ry

     total magnetization       =     3.30 Bohr mag/cell
     absolute magnetization    =     3.43 Bohr mag/cell

     iteration #  3     ecut=    30.00 Ry     beta= 0.70
     Davidson diagonalization with overlap
     ethr =  6.27E-03,  avg # of iterations =  2.0

     total cpu time spent up to now is       17.2 secs

     total energy              =    -148.43257002 Ry
     Harris-Foulkes estimate   =    -148.40316989 Ry
     estimated scf accuracy    <       0.04275897 Ry

     total magnetization       =     3.51 Bohr mag/cell
     absolute magnetization    =     3.69 Bohr mag/cell

     iteration #  4     ecut=    30.00 Ry     beta= 0.70
     Davidson diagonalization with overlap
     ethr =  2.38E-04,  avg # of iterations =  2.0

     total cpu time spent up to now is       21.4 secs

     total energy              =    -148.44438400 Ry
     Harris-Foulkes estimate   =    -148.44428834 Ry
     estimated scf accuracy    <       0.00037733 Ry

     total magnetization       =     3.08 Bohr mag/cell
     absolute magnetization    =     3.32 Bohr mag/cell

     iteration #  5     ecut=    30.00 Ry     beta= 0.70
     Davidson diagonalization with overlap
     ethr =  2.10E-06,  avg # of iterations =  3.4

     total cpu time spent up to now is       27.5 secs

     total energy              =    -148.44477482 Ry
     Harris-Foulkes estimate   =    -148.44472778 Ry
     estimated scf accuracy    <       0.00012984 Ry

     total magnetization       =     3.03 Bohr mag/cell
     absolute magnetization    =     3.26 Bohr mag/cell

     iteration #  6     ecut=    30.00 Ry     beta= 0.70
     Davidson diagonalization with overlap
     ethr =  7.21E-07,  avg # of iterations =  1.9

     total cpu time spent up to now is       31.9 secs

     total energy              =    -148.44485603 Ry
     Harris-Foulkes estimate   =    -148.44484803 Ry
     estimated scf accuracy    <       0.00001607 Ry

     total magnetization       =     2.99 Bohr mag/cell
     absolute magnetization    =     3.20 Bohr mag/cell

     iteration #  7     ecut=    30.00 Ry     beta= 0.70
     Davidson diagonalization with overlap
     ethr =  8.93E-08,  avg # of iterations =  2.1

     total cpu time spent up to now is       36.5 secs

     total energy              =    -148.44486825 Ry
     Harris-Foulkes estimate   =    -148.44486877 Ry
     estimated scf accuracy    <       0.00000168 Ry

     total magnetization       =     2.98 Bohr mag/cell
     absolute magnetization    =     3.18 Bohr mag/cell

     iteration #  8     ecut=    30.00 Ry     beta= 0.70
     Davidson diagonalization with overlap
     ethr =  9.32E-09,  avg # of iterations =  2.0

     total cpu time spent up to now is       41.2 secs

     total energy              =    -148.44487012 Ry
     Harris-Foulkes estimate   =    -148.44487015 Ry
     estimated scf accuracy    <       0.00000012 Ry

     total magnetization       =     2.97 Bohr mag/cell
     absolute magnetization    =     3.17 Bohr mag/cell

     iteration #  9     ecut=    30.00 Ry     beta= 0.70
     Davidson diagonalization with overlap
     ethr =  6.62E-10,  avg # of iterations =  1.8

     Magnetic moment per site:
     atom:    1    charge:    7.5696    magn:    1.5306    constr:    0.0000
     atom:    2    charge:    7.5696    magn:    1.5306    constr:    0.0000

     total cpu time spent up to now is       45.6 secs

     End of self-consistent calculation

     Number of k-points >= 100: set verbosity='high' to print the bands.

     the Fermi energy is    16.1133 ev

!    total energy              =    -148.44487018 Ry
     Harris-Foulkes estimate   =    -148.44487018 Ry
     estimated scf accuracy    <          1.4E-09 Ry

     The total energy is the sum of the following terms:

     one-electron contribution =      13.60743345 Ry
     hartree contribution      =      19.46618646 Ry
     xc contribution           =     -65.02682527 Ry
     ewald contribution        =    -116.49885825 Ry
     smearing contrib. (-TS)   =       0.00719342 Ry

     total magnetization       =     2.97 Bohr mag/cell
     absolute magnetization    =     3.17 Bohr mag/cell

     convergence has been achieved in   9 iterations

     Forces acting on atoms (cartesian axes, Ry/au):

     atom    1 type  1   force =     0.00000000    0.00000000    0.00000000
     atom    2 type  1   force =     0.00000000    0.00000000    0.00000000

     Total force =     0.000000     Total SCF correction =     0.000000


     Computing stress (Cartesian axis) and pressure

          total   stress  (Ry/bohr**3)                   (kbar)     P=  106.90
   0.00073752   0.00000000   0.00000000        108.49      0.00      0.00
   0.00000000   0.00073752   0.00000000          0.00    108.49      0.00
   0.00000000   0.00000000   0.00070511          0.00      0.00    103.73


     Writing output data file Co.HCP.save/

     init_run     :      2.15s CPU      2.25s WALL (       1 calls)
     electrons    :     42.22s CPU     43.10s WALL (       1 calls)
     forces       :      1.00s CPU      1.04s WALL (       1 calls)
     stress       :      1.60s CPU      1.65s WALL (       1 calls)

     Called by init_run:
     wfcinit      :      1.19s CPU      1.24s WALL (       1 calls)
     potinit      :      0.06s CPU      0.06s WALL (       1 calls)
     hinit0       :      0.79s CPU      0.81s WALL (       1 calls)

     Called by electrons:
     c_bands      :     34.62s CPU     35.37s WALL (       9 calls)
     sum_band     :      6.35s CPU      6.46s WALL (       9 calls)
     v_of_rho     :      0.20s CPU      0.20s WALL (      10 calls)
     newd         :      1.07s CPU      1.11s WALL (      10 calls)
     mix_rho      :      0.06s CPU      0.06s WALL (       9 calls)

     Called by c_bands:
     init_us_2    :      0.79s CPU      0.80s WALL (    3192 calls)
     cegterg      :     32.99s CPU     33.71s WALL (    1368 calls)

     Called by sum_band:
     sum_band:bec :      0.13s CPU      0.13s WALL (    1368 calls)
     addusdens    :      1.65s CPU      1.67s WALL (       9 calls)

     Called by *egterg:
     h_psi        :     19.76s CPU     20.27s WALL (    4701 calls)
     s_psi        :      3.18s CPU      3.25s WALL (    4701 calls)
     g_psi        :      0.08s CPU      0.08s WALL (    3181 calls)
     cdiaghg      :      3.40s CPU      3.46s WALL (    4549 calls)

     Called by h_psi:
     h_psi:pot    :     19.68s CPU     20.18s WALL (    4701 calls)
     h_psi:calbec :      3.53s CPU      3.63s WALL (    4701 calls)
     vloc_psi     :     12.98s CPU     13.31s WALL (    4701 calls)
     add_vuspsi   :      3.14s CPU      3.22s WALL (    4701 calls)

     General routines
     calbec       :      5.54s CPU      5.68s WALL (    6829 calls)
     fft          :      0.14s CPU      0.15s WALL (     114 calls)
     ffts         :      0.02s CPU      0.02s WALL (      38 calls)
     fftw         :     12.29s CPU     12.61s WALL (  112532 calls)
     interpolate  :      0.03s CPU      0.03s WALL (      20 calls)

     Parallel routines

     PWSCF        :     47.31s CPU     48.42s WALL


   This run was terminated on:  17:29:43  19Feb2020            

=------------------------------------------------------------------------------=
   JOB DONE.
=------------------------------------------------------------------------------=
