     Message from routine get_command_line:
     unexpected argument # 2     :-input

     Program PWSCF v.6.4.1 starts on 19Feb2020 at 18: 9:26 

     This program is part of the open-source Quantum ESPRESSO suite
     for quantum simulation of materials; please cite
         "P. Giannozzi et al., J. Phys.:Condens. Matter 21 395502 (2009);
         "P. Giannozzi et al., J. Phys.:Condens. Matter 29 465901 (2017);
          URL http://www.quantum-espresso.org", 
     in publications or presentations arising from this work. More details at
     http://www.quantum-espresso.org/quote

     Parallel version (MPI), running on     1 processors

     MPI processes distributed on     1 nodes
     Waiting for input...
     Reading input from standard input

     Current dimensions of program PWSCF are:
     Max number of different atomic species (ntypx) = 10
     Max number of k-points (npk) =  40000
     Max angular momentum in pseudopotentials (lmaxx) =  3
               file Co.pz-nd-rrkjus.UPF: wavefunction(s)  4S 3D renormalized

     Subspace diagonalization in iterative solution of the eigenvalue problem:
     a serial algorithm will be used


     G-vector sticks info
     --------------------
     sticks:   dense  smooth     PW     G-vecs:    dense   smooth      PW
     Sum         367     169     61                 8573     2821     591



     bravais-lattice index     =            4
     lattice parameter (alat)  =       4.6000  a.u.
     unit-cell volume          =     128.1291 (a.u.)^3
     number of atoms/cell      =            2
     number of atomic types    =            1
     number of electrons       =        18.00
     number of Kohn-Sham states=           13
     kinetic-energy cutoff     =      30.0000  Ry
     charge density cutoff     =     250.0000  Ry
     convergence threshold     =      1.0E-08
     mixing beta               =       0.7000
     number of iterations used =            8  plain     mixing
     Exchange-correlation      =  SLA  PZ   NOGX NOGC ( 1  1  0  0 0 0)

     celldm(1)=   4.600000  celldm(2)=   0.000000  celldm(3)=   1.520000
     celldm(4)=   0.000000  celldm(5)=   0.000000  celldm(6)=   0.000000

     crystal axes: (cart. coord. in units of alat)
               a(1) = (   1.000000   0.000000   0.000000 )  
               a(2) = (  -0.500000   0.866025   0.000000 )  
               a(3) = (   0.000000   0.000000   1.520000 )  

     reciprocal axes: (cart. coord. in units 2 pi/alat)
               b(1) = (  1.000000  0.577350 -0.000000 )  
               b(2) = (  0.000000  1.154701  0.000000 )  
               b(3) = (  0.000000 -0.000000  0.657895 )  


     PseudoPot. # 1 for Co read from file:
     ./Co.pz-nd-rrkjus.UPF
     MD5 check sum: c80159f6ca3a93d3df3cfc6468bb3c3d
     Pseudo is Ultrasoft + core correction, Zval =  9.0
     Generated by new atomic code, or converted to UPF format
     Using radial grid of  961 points,  6 beta functions with: 
                l(1) =   0
                l(2) =   0
                l(3) =   1
                l(4) =   1
                l(5) =   2
                l(6) =   2
     Q(r) pseudized with 0 coefficients 


     atomic species   valence    mass     pseudopotential
        Co             9.00    58.93300     Co( 1.00)

     Starting magnetic structure 
     atomic species   magnetization
        Co           0.700

     24 Sym. Ops., with inversion, found (12 have fractional translation)



   Cartesian axes

     site n.     atom                  positions (alat units)
         1           Co  tau(   1) = (  -0.0000000   0.5773503   0.3800000  )
         2           Co  tau(   2) = (   0.5000000   0.2886751   1.1400000  )

     number of k points=    76  Marzari-Vanderbilt smearing, width (Ry)=  0.0300
                       cart. coord. in units 2pi/alat
        k(    1) = (   0.0000000   0.0000000   0.0000000), wk =   0.0011574
        k(    2) = (   0.0000000   0.0000000   0.1096491), wk =   0.0023148
        k(    3) = (   0.0000000   0.0000000   0.2192982), wk =   0.0023148
        k(    4) = (   0.0000000   0.0000000  -0.3289474), wk =   0.0011574
        k(    5) = (   0.0000000   0.0962250   0.0000000), wk =   0.0069444
        k(    6) = (   0.0000000   0.0962250   0.1096491), wk =   0.0138889
        k(    7) = (   0.0000000   0.0962250   0.2192982), wk =   0.0138889
        k(    8) = (   0.0000000   0.0962250  -0.3289474), wk =   0.0069444
        k(    9) = (   0.0000000   0.1924501   0.0000000), wk =   0.0069444
        k(   10) = (   0.0000000   0.1924501   0.1096491), wk =   0.0138889
        k(   11) = (   0.0000000   0.1924501   0.2192982), wk =   0.0138889
        k(   12) = (   0.0000000   0.1924501  -0.3289474), wk =   0.0069444
        k(   13) = (   0.0000000   0.2886751   0.0000000), wk =   0.0069444
        k(   14) = (   0.0000000   0.2886751   0.1096491), wk =   0.0138889
        k(   15) = (   0.0000000   0.2886751   0.2192982), wk =   0.0138889
        k(   16) = (   0.0000000   0.2886751  -0.3289474), wk =   0.0069444
        k(   17) = (   0.0000000   0.3849002   0.0000000), wk =   0.0069444
        k(   18) = (   0.0000000   0.3849002   0.1096491), wk =   0.0138889
        k(   19) = (   0.0000000   0.3849002   0.2192982), wk =   0.0138889
        k(   20) = (   0.0000000   0.3849002  -0.3289474), wk =   0.0069444
        k(   21) = (   0.0000000   0.4811252   0.0000000), wk =   0.0069444
        k(   22) = (   0.0000000   0.4811252   0.1096491), wk =   0.0138889
        k(   23) = (   0.0000000   0.4811252   0.2192982), wk =   0.0138889
        k(   24) = (   0.0000000   0.4811252  -0.3289474), wk =   0.0069444
        k(   25) = (   0.0000000  -0.5773503   0.0000000), wk =   0.0034722
        k(   26) = (   0.0000000  -0.5773503   0.1096491), wk =   0.0069444
        k(   27) = (   0.0000000  -0.5773503   0.2192982), wk =   0.0069444
        k(   28) = (   0.0000000  -0.5773503  -0.3289474), wk =   0.0034722
        k(   29) = (   0.0833333   0.1443376   0.0000000), wk =   0.0069444
        k(   30) = (   0.0833333   0.1443376   0.1096491), wk =   0.0138889
        k(   31) = (   0.0833333   0.1443376   0.2192982), wk =   0.0138889
        k(   32) = (   0.0833333   0.1443376  -0.3289474), wk =   0.0069444
        k(   33) = (   0.0833333   0.2405626   0.0000000), wk =   0.0138889
        k(   34) = (   0.0833333   0.2405626   0.1096491), wk =   0.0277778
        k(   35) = (   0.0833333   0.2405626   0.2192982), wk =   0.0277778
        k(   36) = (   0.0833333   0.2405626  -0.3289474), wk =   0.0138889
        k(   37) = (   0.0833333   0.3367877   0.0000000), wk =   0.0138889
        k(   38) = (   0.0833333   0.3367877   0.1096491), wk =   0.0277778
        k(   39) = (   0.0833333   0.3367877   0.2192982), wk =   0.0277778
        k(   40) = (   0.0833333   0.3367877  -0.3289474), wk =   0.0138889
        k(   41) = (   0.0833333   0.4330127   0.0000000), wk =   0.0138889
        k(   42) = (   0.0833333   0.4330127   0.1096491), wk =   0.0277778
        k(   43) = (   0.0833333   0.4330127   0.2192982), wk =   0.0277778
        k(   44) = (   0.0833333   0.4330127  -0.3289474), wk =   0.0138889
        k(   45) = (   0.0833333   0.5292377   0.0000000), wk =   0.0138889
        k(   46) = (   0.0833333   0.5292377   0.1096491), wk =   0.0277778
        k(   47) = (   0.0833333   0.5292377   0.2192982), wk =   0.0277778
        k(   48) = (   0.0833333   0.5292377  -0.3289474), wk =   0.0138889
        k(   49) = (   0.1666667   0.2886751   0.0000000), wk =   0.0069444
        k(   50) = (   0.1666667   0.2886751   0.1096491), wk =   0.0138889
        k(   51) = (   0.1666667   0.2886751   0.2192982), wk =   0.0138889
        k(   52) = (   0.1666667   0.2886751  -0.3289474), wk =   0.0069444
        k(   53) = (   0.1666667   0.3849002   0.0000000), wk =   0.0138889
        k(   54) = (   0.1666667   0.3849002   0.1096491), wk =   0.0277778
        k(   55) = (   0.1666667   0.3849002   0.2192982), wk =   0.0277778
        k(   56) = (   0.1666667   0.3849002  -0.3289474), wk =   0.0138889
        k(   57) = (   0.1666667   0.4811252   0.0000000), wk =   0.0138889
        k(   58) = (   0.1666667   0.4811252   0.1096491), wk =   0.0277778
        k(   59) = (   0.1666667   0.4811252   0.2192982), wk =   0.0277778
        k(   60) = (   0.1666667   0.4811252  -0.3289474), wk =   0.0138889
        k(   61) = (   0.1666667   0.5773503   0.0000000), wk =   0.0069444
        k(   62) = (   0.1666667   0.5773503   0.1096491), wk =   0.0138889
        k(   63) = (   0.1666667   0.5773503   0.2192982), wk =   0.0138889
        k(   64) = (   0.1666667   0.5773503  -0.3289474), wk =   0.0069444
        k(   65) = (   0.2500000   0.4330127   0.0000000), wk =   0.0069444
        k(   66) = (   0.2500000   0.4330127   0.1096491), wk =   0.0138889
        k(   67) = (   0.2500000   0.4330127   0.2192982), wk =   0.0138889
        k(   68) = (   0.2500000   0.4330127  -0.3289474), wk =   0.0069444
        k(   69) = (   0.2500000   0.5292377   0.0000000), wk =   0.0138889
        k(   70) = (   0.2500000   0.5292377   0.1096491), wk =   0.0277778
        k(   71) = (   0.2500000   0.5292377   0.2192982), wk =   0.0277778
        k(   72) = (   0.2500000   0.5292377  -0.3289474), wk =   0.0138889
        k(   73) = (   0.3333333   0.5773503   0.0000000), wk =   0.0023148
        k(   74) = (   0.3333333   0.5773503   0.1096491), wk =   0.0046296
        k(   75) = (   0.3333333   0.5773503   0.2192982), wk =   0.0046296
        k(   76) = (   0.3333333   0.5773503  -0.3289474), wk =   0.0023148

     Dense  grid:     8573 G-vectors     FFT dimensions: (  24,  24,  36)

     Smooth grid:     2821 G-vectors     FFT dimensions: (  18,  18,  30)

     Estimated max dynamical RAM per process >      46.77 MB
     Generating pointlists ...
     new r_m :   0.3937 (alat units)  1.8110 (a.u.) for type    1

     Check: negative core charge=   -0.000014

     Initial potential from superposition of free atoms

     starting charge   17.99923, renormalised to   18.00000
     Starting wfcs are   12 randomized atomic wfcs +    1 random wfcs

     total cpu time spent up to now is        3.4 secs

     Self-consistent Calculation

     iteration #  1     ecut=    30.00 Ry     beta= 0.70
     Davidson diagonalization with overlap
     ethr =  1.00E-02,  avg # of iterations =  3.4

     total cpu time spent up to now is       12.0 secs

     total energy              =    -147.95805117 Ry
     Harris-Foulkes estimate   =    -148.09868559 Ry
     estimated scf accuracy    <       1.12378205 Ry

     total magnetization       =     4.76 Bohr mag/cell
     absolute magnetization    =     4.76 Bohr mag/cell

     iteration #  2     ecut=    30.00 Ry     beta= 0.70
     Davidson diagonalization with overlap
     ethr =  6.24E-03,  avg # of iterations =  2.3

     total cpu time spent up to now is       20.1 secs

     total energy              =    -148.18845878 Ry
     Harris-Foulkes estimate   =    -148.61259080 Ry
     estimated scf accuracy    <       1.05196425 Ry

     total magnetization       =     3.29 Bohr mag/cell
     absolute magnetization    =     3.42 Bohr mag/cell

     iteration #  3     ecut=    30.00 Ry     beta= 0.70
     Davidson diagonalization with overlap
     ethr =  5.84E-03,  avg # of iterations =  2.0

     total cpu time spent up to now is       26.8 secs

     total energy              =    -148.42738077 Ry
     Harris-Foulkes estimate   =    -148.39859875 Ry
     estimated scf accuracy    <       0.04451184 Ry

     total magnetization       =     3.46 Bohr mag/cell
     absolute magnetization    =     3.64 Bohr mag/cell

     iteration #  4     ecut=    30.00 Ry     beta= 0.70
     Davidson diagonalization with overlap
     ethr =  2.47E-04,  avg # of iterations =  1.9

     total cpu time spent up to now is       33.5 secs

     total energy              =    -148.43872951 Ry
     Harris-Foulkes estimate   =    -148.43849970 Ry
     estimated scf accuracy    <       0.00064698 Ry

     total magnetization       =     2.95 Bohr mag/cell
     absolute magnetization    =     3.20 Bohr mag/cell

     iteration #  5     ecut=    30.00 Ry     beta= 0.70
     Davidson diagonalization with overlap
     ethr =  3.59E-06,  avg # of iterations =  3.2

     total cpu time spent up to now is       42.2 secs

     total energy              =    -148.43925082 Ry
     Harris-Foulkes estimate   =    -148.43926137 Ry
     estimated scf accuracy    <       0.00026360 Ry

     total magnetization       =     2.86 Bohr mag/cell
     absolute magnetization    =     3.08 Bohr mag/cell

     iteration #  6     ecut=    30.00 Ry     beta= 0.70
     Davidson diagonalization with overlap
     ethr =  1.46E-06,  avg # of iterations =  2.0

     total cpu time spent up to now is       49.5 secs

     total energy              =    -148.43957048 Ry
     Harris-Foulkes estimate   =    -148.43957482 Ry
     estimated scf accuracy    <       0.00004204 Ry

     total magnetization       =     2.75 Bohr mag/cell
     absolute magnetization    =     2.94 Bohr mag/cell

     iteration #  7     ecut=    30.00 Ry     beta= 0.70
     Davidson diagonalization with overlap
     ethr =  2.34E-07,  avg # of iterations =  1.8

     total cpu time spent up to now is       56.7 secs

     total energy              =    -148.43959858 Ry
     Harris-Foulkes estimate   =    -148.43959774 Ry
     estimated scf accuracy    <       0.00000120 Ry

     total magnetization       =     2.72 Bohr mag/cell
     absolute magnetization    =     2.91 Bohr mag/cell

     iteration #  8     ecut=    30.00 Ry     beta= 0.70
     Davidson diagonalization with overlap
     ethr =  6.68E-09,  avg # of iterations =  2.6

     total cpu time spent up to now is       64.8 secs

     total energy              =    -148.43959915 Ry
     Harris-Foulkes estimate   =    -148.43959951 Ry
     estimated scf accuracy    <       0.00000037 Ry

     total magnetization       =     2.71 Bohr mag/cell
     absolute magnetization    =     2.90 Bohr mag/cell

     iteration #  9     ecut=    30.00 Ry     beta= 0.70
     Davidson diagonalization with overlap
     ethr =  2.04E-09,  avg # of iterations =  2.3

     total cpu time spent up to now is       72.5 secs

     total energy              =    -148.43959992 Ry
     Harris-Foulkes estimate   =    -148.43959992 Ry
     estimated scf accuracy    <       0.00000003 Ry

     total magnetization       =     2.71 Bohr mag/cell
     absolute magnetization    =     2.89 Bohr mag/cell

     iteration # 10     ecut=    30.00 Ry     beta= 0.70
     Davidson diagonalization with overlap
     ethr =  1.77E-10,  avg # of iterations =  2.3

     total cpu time spent up to now is       80.4 secs

     total energy              =    -148.43959993 Ry
     Harris-Foulkes estimate   =    -148.43959993 Ry
     estimated scf accuracy    <       0.00000001 Ry

     total magnetization       =     2.71 Bohr mag/cell
     absolute magnetization    =     2.89 Bohr mag/cell

     iteration # 11     ecut=    30.00 Ry     beta= 0.70
     Davidson diagonalization with overlap
     ethr =  6.43E-11,  avg # of iterations =  1.6

     Magnetic moment per site:
     atom:    1    charge:    7.4442    magn:    1.3963    constr:    0.0000
     atom:    2    charge:    7.4442    magn:    1.3963    constr:    0.0000

     total cpu time spent up to now is       86.8 secs

     End of self-consistent calculation

     Number of k-points >= 100: set verbosity='high' to print the bands.

     the Fermi energy is    16.3429 ev

!    total energy              =    -148.43959993 Ry
     Harris-Foulkes estimate   =    -148.43959993 Ry
     estimated scf accuracy    <          1.2E-10 Ry

     The total energy is the sum of the following terms:

     one-electron contribution =      14.08015574 Ry
     hartree contribution      =      19.35931889 Ry
     xc contribution           =     -65.03417040 Ry
     ewald contribution        =    -116.85041738 Ry
     smearing contrib. (-TS)   =       0.00551321 Ry

     total magnetization       =     2.71 Bohr mag/cell
     absolute magnetization    =     2.89 Bohr mag/cell

     convergence has been achieved in  11 iterations

     Forces acting on atoms (cartesian axes, Ry/au):

     atom    1 type  1   force =    -0.00000000   -0.00000000    0.00000000
     atom    2 type  1   force =     0.00000000    0.00000000    0.00000000

     Total force =     0.000000     Total SCF correction =     0.000000


     Computing stress (Cartesian axis) and pressure

          total   stress  (Ry/bohr**3)                   (kbar)     P=  136.30
   0.00043425  -0.00000000   0.00000000         63.88     -0.00      0.00
  -0.00000000   0.00043425   0.00000000         -0.00     63.88      0.00
   0.00000000   0.00000000   0.00191122          0.00      0.00    281.15


     Writing output data file Co.HCP.save/

     init_run     :      3.08s CPU      3.17s WALL (       1 calls)
     electrons    :     82.39s CPU     83.34s WALL (       1 calls)
     forces       :      0.96s CPU      0.97s WALL (       1 calls)
     stress       :      1.55s CPU      1.56s WALL (       1 calls)

     Called by init_run:
     wfcinit      :      2.16s CPU      2.23s WALL (       1 calls)
     potinit      :      0.06s CPU      0.07s WALL (       1 calls)
     hinit0       :      0.72s CPU      0.74s WALL (       1 calls)

     Called by electrons:
     c_bands      :     67.36s CPU     68.18s WALL (      11 calls)
     sum_band     :     13.56s CPU     13.69s WALL (      11 calls)
     v_of_rho     :      0.21s CPU      0.21s WALL (      12 calls)
     newd         :      1.28s CPU      1.29s WALL (      12 calls)
     mix_rho      :      0.06s CPU      0.06s WALL (      11 calls)

     Called by c_bands:
     init_us_2    :      0.94s CPU      0.96s WALL (    3800 calls)
     cegterg      :     65.43s CPU     66.21s WALL (    1672 calls)

     Called by sum_band:
     sum_band:bec :      0.18s CPU      0.18s WALL (    1672 calls)
     addusdens    :      2.04s CPU      2.06s WALL (      11 calls)

     Called by *egterg:
     h_psi        :     50.72s CPU     51.38s WALL (    5701 calls)
     s_psi        :      3.78s CPU      3.82s WALL (    5701 calls)
     g_psi        :      0.10s CPU      0.10s WALL (    3877 calls)
     cdiaghg      :      3.98s CPU      4.03s WALL (    5549 calls)

     Called by h_psi:
     h_psi:pot    :     50.64s CPU     51.30s WALL (    5701 calls)
     h_psi:calbec :      4.15s CPU      4.19s WALL (    5701 calls)
     vloc_psi     :     42.71s CPU     43.29s WALL (    5701 calls)
     add_vuspsi   :      3.74s CPU      3.78s WALL (    5701 calls)

     General routines
     calbec       :      6.42s CPU      6.49s WALL (    8133 calls)
     fft          :      0.15s CPU      0.15s WALL (     136 calls)
     ffts         :      0.05s CPU      0.05s WALL (      46 calls)
     fftw         :     45.98s CPU     46.62s WALL (  135448 calls)
     interpolate  :      0.06s CPU      0.07s WALL (      24 calls)

     Parallel routines

     PWSCF        :   1m28.31s CPU   1m29.44s WALL


   This run was terminated on:  18:10:56  19Feb2020            

=------------------------------------------------------------------------------=
   JOB DONE.
=------------------------------------------------------------------------------=
