     Message from routine get_command_line:
     unexpected argument # 2     :-input

     Program PWSCF v.6.4.1 starts on 19Feb2020 at  8:51:58 

     This program is part of the open-source Quantum ESPRESSO suite
     for quantum simulation of materials; please cite
         "P. Giannozzi et al., J. Phys.:Condens. Matter 21 395502 (2009);
         "P. Giannozzi et al., J. Phys.:Condens. Matter 29 465901 (2017);
          URL http://www.quantum-espresso.org", 
     in publications or presentations arising from this work. More details at
     http://www.quantum-espresso.org/quote

     Parallel version (MPI), running on     1 processors

     MPI processes distributed on     1 nodes
     Waiting for input...
     Reading input from standard input
     Message from routine read_cards :
     DEPRECATED: no units specified in ATOMIC_POSITIONS card
     Message from routine read_cards :
     ATOMIC_POSITIONS: units set to alat

     Current dimensions of program PWSCF are:
     Max number of different atomic species (ntypx) = 10
     Max number of k-points (npk) =  40000
     Max angular momentum in pseudopotentials (lmaxx) =  3
               file Co.pz-nd-rrkjus.UPF: wavefunction(s)  4S 3D renormalized

     Subspace diagonalization in iterative solution of the eigenvalue problem:
     a serial algorithm will be used


     G-vector sticks info
     --------------------
     sticks:   dense  smooth     PW     G-vecs:    dense   smooth      PW
     Sum         283     139     55                 3143     1067     283



     bravais-lattice index     =            2
     lattice parameter (alat)  =       5.7600  a.u.
     unit-cell volume          =      47.7757 (a.u.)^3
     number of atoms/cell      =            1
     number of atomic types    =            1
     number of electrons       =         9.00
     number of Kohn-Sham states=            9
     kinetic-energy cutoff     =      30.0000  Ry
     charge density cutoff     =     250.0000  Ry
     convergence threshold     =      1.0E-08
     mixing beta               =       0.7000
     number of iterations used =            8  plain     mixing
     Exchange-correlation      =  SLA  PZ   NOGX NOGC ( 1  1  0  0 0 0)

     celldm(1)=   5.760000  celldm(2)=   0.000000  celldm(3)=   0.000000
     celldm(4)=   0.000000  celldm(5)=   0.000000  celldm(6)=   0.000000

     crystal axes: (cart. coord. in units of alat)
               a(1) = (  -0.500000   0.000000   0.500000 )  
               a(2) = (   0.000000   0.500000   0.500000 )  
               a(3) = (  -0.500000   0.500000   0.000000 )  

     reciprocal axes: (cart. coord. in units 2 pi/alat)
               b(1) = ( -1.000000 -1.000000  1.000000 )  
               b(2) = (  1.000000  1.000000  1.000000 )  
               b(3) = ( -1.000000  1.000000 -1.000000 )  


     PseudoPot. # 1 for Co read from file:
     ./Co.pz-nd-rrkjus.UPF
     MD5 check sum: c80159f6ca3a93d3df3cfc6468bb3c3d
     Pseudo is Ultrasoft + core correction, Zval =  9.0
     Generated by new atomic code, or converted to UPF format
     Using radial grid of  961 points,  6 beta functions with: 
                l(1) =   0
                l(2) =   0
                l(3) =   1
                l(4) =   1
                l(5) =   2
                l(6) =   2
     Q(r) pseudized with 0 coefficients 


     atomic species   valence    mass     pseudopotential
        Co             9.00    58.93300     Co( 1.00)

     Starting magnetic structure 
     atomic species   magnetization
        Co           0.700

     48 Sym. Ops., with inversion, found



   Cartesian axes

     site n.     atom                  positions (alat units)
         1           Co  tau(   1) = (   0.0000000   0.0000000   0.0000000  )

     number of k points=    72  Marzari-Vanderbilt smearing, width (Ry)=  0.0300
                       cart. coord. in units 2pi/alat
        k(    1) = (   0.0000000   0.0000000   0.0000000), wk =   0.0005787
        k(    2) = (  -0.0833333   0.0833333  -0.0833333), wk =   0.0046296
        k(    3) = (  -0.1666667   0.1666667  -0.1666667), wk =   0.0046296
        k(    4) = (  -0.2500000   0.2500000  -0.2500000), wk =   0.0046296
        k(    5) = (  -0.3333333   0.3333333  -0.3333333), wk =   0.0046296
        k(    6) = (  -0.4166667   0.4166667  -0.4166667), wk =   0.0046296
        k(    7) = (   0.5000000  -0.5000000   0.5000000), wk =   0.0023148
        k(    8) = (   0.0000000   0.1666667   0.0000000), wk =   0.0034722
        k(    9) = (  -0.0833333   0.2500000  -0.0833333), wk =   0.0138889
        k(   10) = (  -0.1666667   0.3333333  -0.1666667), wk =   0.0138889
        k(   11) = (  -0.2500000   0.4166667  -0.2500000), wk =   0.0138889
        k(   12) = (  -0.3333333   0.5000000  -0.3333333), wk =   0.0138889
        k(   13) = (   0.5833333  -0.4166667   0.5833333), wk =   0.0138889
        k(   14) = (   0.5000000  -0.3333333   0.5000000), wk =   0.0138889
        k(   15) = (   0.4166667  -0.2500000   0.4166667), wk =   0.0138889
        k(   16) = (   0.3333333  -0.1666667   0.3333333), wk =   0.0138889
        k(   17) = (   0.2500000  -0.0833333   0.2500000), wk =   0.0138889
        k(   18) = (   0.1666667  -0.0000000   0.1666667), wk =   0.0069444
        k(   19) = (   0.0000000   0.3333333   0.0000000), wk =   0.0034722
        k(   20) = (  -0.0833333   0.4166667  -0.0833333), wk =   0.0138889
        k(   21) = (  -0.1666667   0.5000000  -0.1666667), wk =   0.0138889
        k(   22) = (  -0.2500000   0.5833333  -0.2500000), wk =   0.0138889
        k(   23) = (   0.6666667  -0.3333333   0.6666667), wk =   0.0138889
        k(   24) = (   0.5833333  -0.2500000   0.5833333), wk =   0.0138889
        k(   25) = (   0.5000000  -0.1666667   0.5000000), wk =   0.0138889
        k(   26) = (   0.4166667  -0.0833333   0.4166667), wk =   0.0138889
        k(   27) = (   0.3333333   0.0000000   0.3333333), wk =   0.0069444
        k(   28) = (   0.0000000   0.5000000   0.0000000), wk =   0.0034722
        k(   29) = (  -0.0833333   0.5833333  -0.0833333), wk =   0.0138889
        k(   30) = (  -0.1666667   0.6666667  -0.1666667), wk =   0.0138889
        k(   31) = (   0.7500000  -0.2500000   0.7500000), wk =   0.0138889
        k(   32) = (   0.6666667  -0.1666667   0.6666667), wk =   0.0138889
        k(   33) = (   0.5833333  -0.0833333   0.5833333), wk =   0.0138889
        k(   34) = (   0.5000000   0.0000000   0.5000000), wk =   0.0069444
        k(   35) = (   0.0000000   0.6666667   0.0000000), wk =   0.0034722
        k(   36) = (  -0.0833333   0.7500000  -0.0833333), wk =   0.0138889
        k(   37) = (   0.8333333  -0.1666667   0.8333333), wk =   0.0138889
        k(   38) = (   0.7500000  -0.0833333   0.7500000), wk =   0.0138889
        k(   39) = (   0.6666667  -0.0000000   0.6666667), wk =   0.0069444
        k(   40) = (   0.0000000   0.8333333   0.0000000), wk =   0.0034722
        k(   41) = (   0.9166667  -0.0833333   0.9166667), wk =   0.0138889
        k(   42) = (   0.8333333   0.0000000   0.8333333), wk =   0.0069444
        k(   43) = (   0.0000000  -1.0000000   0.0000000), wk =   0.0017361
        k(   44) = (  -0.1666667   0.3333333   0.0000000), wk =   0.0138889
        k(   45) = (  -0.2500000   0.4166667  -0.0833333), wk =   0.0277778
        k(   46) = (  -0.3333333   0.5000000  -0.1666667), wk =   0.0277778
        k(   47) = (   0.5833333  -0.4166667   0.7500000), wk =   0.0277778
        k(   48) = (   0.5000000  -0.3333333   0.6666667), wk =   0.0138889
        k(   49) = (  -0.1666667   0.5000000   0.0000000), wk =   0.0138889
        k(   50) = (  -0.2500000   0.5833333  -0.0833333), wk =   0.0277778
        k(   51) = (   0.6666667  -0.3333333   0.8333333), wk =   0.0277778
        k(   52) = (   0.5833333  -0.2500000   0.7500000), wk =   0.0277778
        k(   53) = (   0.5000000  -0.1666667   0.6666667), wk =   0.0277778
        k(   54) = (   0.4166667  -0.0833333   0.5833333), wk =   0.0277778
        k(   55) = (   0.3333333   0.0000000   0.5000000), wk =   0.0138889
        k(   56) = (  -0.1666667   0.6666667  -0.0000000), wk =   0.0138889
        k(   57) = (   0.7500000  -0.2500000   0.9166667), wk =   0.0277778
        k(   58) = (   0.6666667  -0.1666667   0.8333333), wk =   0.0277778
        k(   59) = (   0.5833333  -0.0833333   0.7500000), wk =   0.0277778
        k(   60) = (   0.5000000   0.0000000   0.6666667), wk =   0.0138889
        k(   61) = (   0.8333333  -0.1666667   1.0000000), wk =   0.0138889
        k(   62) = (   0.7500000  -0.0833333   0.9166667), wk =   0.0277778
        k(   63) = (   0.6666667   0.0000000   0.8333333), wk =   0.0138889
        k(   64) = (  -0.1666667  -1.0000000  -0.0000000), wk =   0.0069444
        k(   65) = (   0.6666667  -0.3333333   1.0000000), wk =   0.0138889
        k(   66) = (   0.5833333  -0.2500000   0.9166667), wk =   0.0277778
        k(   67) = (   0.5000000  -0.1666667   0.8333333), wk =   0.0138889
        k(   68) = (   0.6666667  -0.1666667   1.0000000), wk =   0.0138889
        k(   69) = (   0.5833333  -0.0833333   0.9166667), wk =   0.0277778
        k(   70) = (   0.5000000   0.0000000   0.8333333), wk =   0.0138889
        k(   71) = (  -0.3333333  -1.0000000   0.0000000), wk =   0.0069444
        k(   72) = (  -0.5000000  -1.0000000   0.0000000), wk =   0.0034722

     Dense  grid:     3143 G-vectors     FFT dimensions: (  24,  24,  24)

     Smooth grid:     1067 G-vectors     FFT dimensions: (  15,  15,  15)

     Estimated max dynamical RAM per process >      17.29 MB
     Generating pointlists ...
     new r_m :   0.2917 (alat units)  1.6801 (a.u.) for type    1

     Check: negative core charge=   -0.000003

     Initial potential from superposition of free atoms

     starting charge    8.99962, renormalised to    9.00000
     Starting wfcs are    6 randomized atomic wfcs +    3 random wfcs

     total cpu time spent up to now is        1.4 secs

     Self-consistent Calculation

     iteration #  1     ecut=    30.00 Ry     beta= 0.70
     Davidson diagonalization with overlap
     ethr =  1.00E-02,  avg # of iterations =  4.4

     total cpu time spent up to now is        2.8 secs

     total energy              =     -73.96037142 Ry
     Harris-Foulkes estimate   =     -73.87546510 Ry
     estimated scf accuracy    <       0.49752626 Ry

     total magnetization       =     2.02 Bohr mag/cell
     absolute magnetization    =     2.02 Bohr mag/cell

     iteration #  2     ecut=    30.00 Ry     beta= 0.70
     Davidson diagonalization with overlap
     ethr =  5.53E-03,  avg # of iterations =  1.7

     total cpu time spent up to now is        3.6 secs

     total energy              =     -74.05819390 Ry
     Harris-Foulkes estimate   =     -74.12319338 Ry
     estimated scf accuracy    <       0.20489842 Ry

     total magnetization       =     1.53 Bohr mag/cell
     absolute magnetization    =     1.57 Bohr mag/cell

     iteration #  3     ecut=    30.00 Ry     beta= 0.70
     Davidson diagonalization with overlap
     ethr =  2.28E-03,  avg # of iterations =  1.4

     total cpu time spent up to now is        4.4 secs

     total energy              =     -74.11607225 Ry
     Harris-Foulkes estimate   =     -74.10819042 Ry
     estimated scf accuracy    <       0.02826917 Ry

     total magnetization       =     1.45 Bohr mag/cell
     absolute magnetization    =     1.50 Bohr mag/cell

     iteration #  4     ecut=    30.00 Ry     beta= 0.70
     Davidson diagonalization with overlap
     ethr =  3.14E-04,  avg # of iterations =  1.0

     total cpu time spent up to now is        5.1 secs

     total energy              =     -74.11984531 Ry
     Harris-Foulkes estimate   =     -74.12687728 Ry
     estimated scf accuracy    <       0.00590124 Ry

     total magnetization       =     0.93 Bohr mag/cell
     absolute magnetization    =     1.00 Bohr mag/cell

     iteration #  5     ecut=    30.00 Ry     beta= 0.70
     Davidson diagonalization with overlap
     ethr =  6.56E-05,  avg # of iterations =  1.0

     total cpu time spent up to now is        5.8 secs

     total energy              =     -74.12294671 Ry
     Harris-Foulkes estimate   =     -74.12140505 Ry
     estimated scf accuracy    <       0.01012173 Ry

     total magnetization       =     1.14 Bohr mag/cell
     absolute magnetization    =     1.22 Bohr mag/cell

     iteration #  6     ecut=    30.00 Ry     beta= 0.70
     Davidson diagonalization with overlap
     ethr =  6.56E-05,  avg # of iterations =  1.4

     total cpu time spent up to now is        6.6 secs

     total energy              =     -74.13306728 Ry
     Harris-Foulkes estimate   =     -74.13223625 Ry
     estimated scf accuracy    <       0.00175814 Ry

     total magnetization       =     0.62 Bohr mag/cell
     absolute magnetization    =     0.67 Bohr mag/cell

     iteration #  7     ecut=    30.00 Ry     beta= 0.70
     Davidson diagonalization with overlap
     ethr =  1.95E-05,  avg # of iterations =  1.3

     total cpu time spent up to now is        7.4 secs

     total energy              =     -74.13347994 Ry
     Harris-Foulkes estimate   =     -74.13407160 Ry
     estimated scf accuracy    <       0.00104974 Ry

     total magnetization       =     0.44 Bohr mag/cell
     absolute magnetization    =     0.47 Bohr mag/cell

     iteration #  8     ecut=    30.00 Ry     beta= 0.70
     Davidson diagonalization with overlap
     ethr =  1.17E-05,  avg # of iterations =  1.6

     total cpu time spent up to now is        8.1 secs

     total energy              =     -74.13595730 Ry
     Harris-Foulkes estimate   =     -74.13588628 Ry
     estimated scf accuracy    <       0.00019528 Ry

     total magnetization       =     0.17 Bohr mag/cell
     absolute magnetization    =     0.18 Bohr mag/cell

     iteration #  9     ecut=    30.00 Ry     beta= 0.70
     Davidson diagonalization with overlap
     ethr =  2.17E-06,  avg # of iterations =  1.4

     total cpu time spent up to now is        8.9 secs

     total energy              =     -74.13569126 Ry
     Harris-Foulkes estimate   =     -74.13597264 Ry
     estimated scf accuracy    <       0.00016342 Ry

     total magnetization       =     0.15 Bohr mag/cell
     absolute magnetization    =     0.16 Bohr mag/cell

     iteration # 10     ecut=    30.00 Ry     beta= 0.70
     Davidson diagonalization with overlap
     ethr =  1.82E-06,  avg # of iterations =  1.9

     total cpu time spent up to now is        9.7 secs

     total energy              =     -74.13625779 Ry
     Harris-Foulkes estimate   =     -74.13626947 Ry
     estimated scf accuracy    <       0.00000857 Ry

     total magnetization       =     0.02 Bohr mag/cell
     absolute magnetization    =     0.02 Bohr mag/cell

     iteration # 11     ecut=    30.00 Ry     beta= 0.70
     Davidson diagonalization with overlap
     ethr =  9.53E-08,  avg # of iterations =  1.7

     total cpu time spent up to now is       10.6 secs

     total energy              =     -74.13627389 Ry
     Harris-Foulkes estimate   =     -74.13627395 Ry
     estimated scf accuracy    <       0.00000107 Ry

     total magnetization       =    -0.00 Bohr mag/cell
     absolute magnetization    =     0.00 Bohr mag/cell

     iteration # 12     ecut=    30.00 Ry     beta= 0.70
     Davidson diagonalization with overlap
     ethr =  1.19E-08,  avg # of iterations =  1.1

     total cpu time spent up to now is       11.3 secs

     total energy              =     -74.13627379 Ry
     Harris-Foulkes estimate   =     -74.13627437 Ry
     estimated scf accuracy    <       0.00000048 Ry

     total magnetization       =    -0.00 Bohr mag/cell
     absolute magnetization    =     0.00 Bohr mag/cell

     iteration # 13     ecut=    30.00 Ry     beta= 0.70
     Davidson diagonalization with overlap
     ethr =  5.34E-09,  avg # of iterations =  1.0

     total cpu time spent up to now is       12.0 secs

     total energy              =     -74.13627389 Ry
     Harris-Foulkes estimate   =     -74.13627415 Ry
     estimated scf accuracy    <       0.00000015 Ry

     total magnetization       =     0.00 Bohr mag/cell
     absolute magnetization    =     0.00 Bohr mag/cell

     iteration # 14     ecut=    30.00 Ry     beta= 0.70
     Davidson diagonalization with overlap
     ethr =  1.70E-09,  avg # of iterations =  1.6

     Magnetic moment per site:
     atom:    1    charge:    7.3849    magn:   -0.0003    constr:    0.0000

     total cpu time spent up to now is       12.8 secs

     End of self-consistent calculation

     Number of k-points >= 100: set verbosity='high' to print the bands.

     the Fermi energy is    23.5546 ev

!    total energy              =     -74.13627426 Ry
     Harris-Foulkes estimate   =     -74.13627426 Ry
     estimated scf accuracy    <          7.7E-10 Ry

     The total energy is the sum of the following terms:

     one-electron contribution =      15.60916074 Ry
     hartree contribution      =       7.55739001 Ry
     xc contribution           =     -32.82817278 Ry
     ewald contribution        =     -64.47462292 Ry
     smearing contrib. (-TS)   =      -0.00002931 Ry

     total magnetization       =    -0.00 Bohr mag/cell
     absolute magnetization    =     0.00 Bohr mag/cell

     convergence has been achieved in  14 iterations

     Forces acting on atoms (cartesian axes, Ry/au):

     atom    1 type  1   force =     0.00000000    0.00000000    0.00000000

     Total force =     0.000000     Total SCF correction =     0.000000


     Computing stress (Cartesian axis) and pressure

          total   stress  (Ry/bohr**3)                   (kbar)     P= 1863.15
   0.01266547  -0.00000000  -0.00000000       1863.15     -0.00     -0.00
  -0.00000000   0.01266547   0.00000000         -0.00   1863.15      0.00
  -0.00000000   0.00000000   0.01266547         -0.00      0.00   1863.15


     Writing output data file Co.FCC.save/

     init_run     :      1.07s CPU      1.14s WALL (       1 calls)
     electrons    :     10.88s CPU     11.38s WALL (       1 calls)
     forces       :      0.17s CPU      0.17s WALL (       1 calls)
     stress       :      0.39s CPU      0.40s WALL (       1 calls)

     Called by init_run:
     wfcinit      :      0.23s CPU      0.27s WALL (       1 calls)
     potinit      :      0.02s CPU      0.02s WALL (       1 calls)
     hinit0       :      0.79s CPU      0.81s WALL (       1 calls)

     Called by electrons:
     c_bands      :      8.04s CPU      8.45s WALL (      14 calls)
     sum_band     :      2.20s CPU      2.28s WALL (      14 calls)
     v_of_rho     :      0.17s CPU      0.17s WALL (      15 calls)
     newd         :      0.44s CPU      0.47s WALL (      15 calls)
     mix_rho      :      0.04s CPU      0.04s WALL (      14 calls)

     Called by c_bands:
     init_us_2    :      0.43s CPU      0.45s WALL (    4464 calls)
     cegterg      :      7.46s CPU      7.83s WALL (    2016 calls)

     Called by sum_band:
     sum_band:bec :      0.06s CPU      0.07s WALL (    2016 calls)
     addusdens    :      0.81s CPU      0.82s WALL (      14 calls)

     Called by *egterg:
     h_psi        :      4.13s CPU      4.34s WALL (    5411 calls)
     s_psi        :      0.53s CPU      0.56s WALL (    5411 calls)
     g_psi        :      0.03s CPU      0.03s WALL (    3251 calls)
     cdiaghg      :      1.33s CPU      1.40s WALL (    5267 calls)

     Called by h_psi:
     h_psi:pot    :      4.10s CPU      4.31s WALL (    5411 calls)
     h_psi:calbec :      0.60s CPU      0.63s WALL (    5411 calls)
     vloc_psi     :      2.94s CPU      3.09s WALL (    5411 calls)
     add_vuspsi   :      0.53s CPU      0.56s WALL (    5411 calls)

     General routines
     calbec       :      0.93s CPU      0.97s WALL (    8147 calls)
     fft          :      0.10s CPU      0.10s WALL (     169 calls)
     ffts         :      0.00s CPU      0.00s WALL (      58 calls)
     fftw         :      2.17s CPU      2.28s WALL (   99578 calls)
     interpolate  :      0.02s CPU      0.02s WALL (      30 calls)

     Parallel routines

     PWSCF        :     12.82s CPU     13.43s WALL


   This run was terminated on:   8:52:12  19Feb2020            

=------------------------------------------------------------------------------=
   JOB DONE.
=------------------------------------------------------------------------------=
