     Message from routine get_command_line:
     unexpected argument # 2     :-input

     Program PWSCF v.6.4.1 starts on 19Feb2020 at  8:53: 9 

     This program is part of the open-source Quantum ESPRESSO suite
     for quantum simulation of materials; please cite
         "P. Giannozzi et al., J. Phys.:Condens. Matter 21 395502 (2009);
         "P. Giannozzi et al., J. Phys.:Condens. Matter 29 465901 (2017);
          URL http://www.quantum-espresso.org", 
     in publications or presentations arising from this work. More details at
     http://www.quantum-espresso.org/quote

     Parallel version (MPI), running on     1 processors

     MPI processes distributed on     1 nodes
     Waiting for input...
     Reading input from standard input
     Message from routine read_cards :
     DEPRECATED: no units specified in ATOMIC_POSITIONS card
     Message from routine read_cards :
     ATOMIC_POSITIONS: units set to alat

     Current dimensions of program PWSCF are:
     Max number of different atomic species (ntypx) = 10
     Max number of k-points (npk) =  40000
     Max angular momentum in pseudopotentials (lmaxx) =  3
               file Co.pz-nd-rrkjus.UPF: wavefunction(s)  4S 3D renormalized

     Subspace diagonalization in iterative solution of the eigenvalue problem:
     a serial algorithm will be used


     G-vector sticks info
     --------------------
     sticks:   dense  smooth     PW     G-vecs:    dense   smooth      PW
     Sum         301     151     55                 3383     1139     283



     bravais-lattice index     =            2
     lattice parameter (alat)  =       5.8600  a.u.
     unit-cell volume          =      50.3075 (a.u.)^3
     number of atoms/cell      =            1
     number of atomic types    =            1
     number of electrons       =         9.00
     number of Kohn-Sham states=            9
     kinetic-energy cutoff     =      30.0000  Ry
     charge density cutoff     =     250.0000  Ry
     convergence threshold     =      1.0E-08
     mixing beta               =       0.7000
     number of iterations used =            8  plain     mixing
     Exchange-correlation      =  SLA  PZ   NOGX NOGC ( 1  1  0  0 0 0)

     celldm(1)=   5.860000  celldm(2)=   0.000000  celldm(3)=   0.000000
     celldm(4)=   0.000000  celldm(5)=   0.000000  celldm(6)=   0.000000

     crystal axes: (cart. coord. in units of alat)
               a(1) = (  -0.500000   0.000000   0.500000 )  
               a(2) = (   0.000000   0.500000   0.500000 )  
               a(3) = (  -0.500000   0.500000   0.000000 )  

     reciprocal axes: (cart. coord. in units 2 pi/alat)
               b(1) = ( -1.000000 -1.000000  1.000000 )  
               b(2) = (  1.000000  1.000000  1.000000 )  
               b(3) = ( -1.000000  1.000000 -1.000000 )  


     PseudoPot. # 1 for Co read from file:
     ./Co.pz-nd-rrkjus.UPF
     MD5 check sum: c80159f6ca3a93d3df3cfc6468bb3c3d
     Pseudo is Ultrasoft + core correction, Zval =  9.0
     Generated by new atomic code, or converted to UPF format
     Using radial grid of  961 points,  6 beta functions with: 
                l(1) =   0
                l(2) =   0
                l(3) =   1
                l(4) =   1
                l(5) =   2
                l(6) =   2
     Q(r) pseudized with 0 coefficients 


     atomic species   valence    mass     pseudopotential
        Co             9.00    58.93300     Co( 1.00)

     Starting magnetic structure 
     atomic species   magnetization
        Co           0.700

     48 Sym. Ops., with inversion, found



   Cartesian axes

     site n.     atom                  positions (alat units)
         1           Co  tau(   1) = (   0.0000000   0.0000000   0.0000000  )

     number of k points=    72  Marzari-Vanderbilt smearing, width (Ry)=  0.0300
                       cart. coord. in units 2pi/alat
        k(    1) = (   0.0000000   0.0000000   0.0000000), wk =   0.0005787
        k(    2) = (  -0.0833333   0.0833333  -0.0833333), wk =   0.0046296
        k(    3) = (  -0.1666667   0.1666667  -0.1666667), wk =   0.0046296
        k(    4) = (  -0.2500000   0.2500000  -0.2500000), wk =   0.0046296
        k(    5) = (  -0.3333333   0.3333333  -0.3333333), wk =   0.0046296
        k(    6) = (  -0.4166667   0.4166667  -0.4166667), wk =   0.0046296
        k(    7) = (   0.5000000  -0.5000000   0.5000000), wk =   0.0023148
        k(    8) = (   0.0000000   0.1666667   0.0000000), wk =   0.0034722
        k(    9) = (  -0.0833333   0.2500000  -0.0833333), wk =   0.0138889
        k(   10) = (  -0.1666667   0.3333333  -0.1666667), wk =   0.0138889
        k(   11) = (  -0.2500000   0.4166667  -0.2500000), wk =   0.0138889
        k(   12) = (  -0.3333333   0.5000000  -0.3333333), wk =   0.0138889
        k(   13) = (   0.5833333  -0.4166667   0.5833333), wk =   0.0138889
        k(   14) = (   0.5000000  -0.3333333   0.5000000), wk =   0.0138889
        k(   15) = (   0.4166667  -0.2500000   0.4166667), wk =   0.0138889
        k(   16) = (   0.3333333  -0.1666667   0.3333333), wk =   0.0138889
        k(   17) = (   0.2500000  -0.0833333   0.2500000), wk =   0.0138889
        k(   18) = (   0.1666667  -0.0000000   0.1666667), wk =   0.0069444
        k(   19) = (   0.0000000   0.3333333   0.0000000), wk =   0.0034722
        k(   20) = (  -0.0833333   0.4166667  -0.0833333), wk =   0.0138889
        k(   21) = (  -0.1666667   0.5000000  -0.1666667), wk =   0.0138889
        k(   22) = (  -0.2500000   0.5833333  -0.2500000), wk =   0.0138889
        k(   23) = (   0.6666667  -0.3333333   0.6666667), wk =   0.0138889
        k(   24) = (   0.5833333  -0.2500000   0.5833333), wk =   0.0138889
        k(   25) = (   0.5000000  -0.1666667   0.5000000), wk =   0.0138889
        k(   26) = (   0.4166667  -0.0833333   0.4166667), wk =   0.0138889
        k(   27) = (   0.3333333   0.0000000   0.3333333), wk =   0.0069444
        k(   28) = (   0.0000000   0.5000000   0.0000000), wk =   0.0034722
        k(   29) = (  -0.0833333   0.5833333  -0.0833333), wk =   0.0138889
        k(   30) = (  -0.1666667   0.6666667  -0.1666667), wk =   0.0138889
        k(   31) = (   0.7500000  -0.2500000   0.7500000), wk =   0.0138889
        k(   32) = (   0.6666667  -0.1666667   0.6666667), wk =   0.0138889
        k(   33) = (   0.5833333  -0.0833333   0.5833333), wk =   0.0138889
        k(   34) = (   0.5000000   0.0000000   0.5000000), wk =   0.0069444
        k(   35) = (   0.0000000   0.6666667   0.0000000), wk =   0.0034722
        k(   36) = (  -0.0833333   0.7500000  -0.0833333), wk =   0.0138889
        k(   37) = (   0.8333333  -0.1666667   0.8333333), wk =   0.0138889
        k(   38) = (   0.7500000  -0.0833333   0.7500000), wk =   0.0138889
        k(   39) = (   0.6666667  -0.0000000   0.6666667), wk =   0.0069444
        k(   40) = (   0.0000000   0.8333333   0.0000000), wk =   0.0034722
        k(   41) = (   0.9166667  -0.0833333   0.9166667), wk =   0.0138889
        k(   42) = (   0.8333333   0.0000000   0.8333333), wk =   0.0069444
        k(   43) = (   0.0000000  -1.0000000   0.0000000), wk =   0.0017361
        k(   44) = (  -0.1666667   0.3333333   0.0000000), wk =   0.0138889
        k(   45) = (  -0.2500000   0.4166667  -0.0833333), wk =   0.0277778
        k(   46) = (  -0.3333333   0.5000000  -0.1666667), wk =   0.0277778
        k(   47) = (   0.5833333  -0.4166667   0.7500000), wk =   0.0277778
        k(   48) = (   0.5000000  -0.3333333   0.6666667), wk =   0.0138889
        k(   49) = (  -0.1666667   0.5000000   0.0000000), wk =   0.0138889
        k(   50) = (  -0.2500000   0.5833333  -0.0833333), wk =   0.0277778
        k(   51) = (   0.6666667  -0.3333333   0.8333333), wk =   0.0277778
        k(   52) = (   0.5833333  -0.2500000   0.7500000), wk =   0.0277778
        k(   53) = (   0.5000000  -0.1666667   0.6666667), wk =   0.0277778
        k(   54) = (   0.4166667  -0.0833333   0.5833333), wk =   0.0277778
        k(   55) = (   0.3333333   0.0000000   0.5000000), wk =   0.0138889
        k(   56) = (  -0.1666667   0.6666667  -0.0000000), wk =   0.0138889
        k(   57) = (   0.7500000  -0.2500000   0.9166667), wk =   0.0277778
        k(   58) = (   0.6666667  -0.1666667   0.8333333), wk =   0.0277778
        k(   59) = (   0.5833333  -0.0833333   0.7500000), wk =   0.0277778
        k(   60) = (   0.5000000   0.0000000   0.6666667), wk =   0.0138889
        k(   61) = (   0.8333333  -0.1666667   1.0000000), wk =   0.0138889
        k(   62) = (   0.7500000  -0.0833333   0.9166667), wk =   0.0277778
        k(   63) = (   0.6666667   0.0000000   0.8333333), wk =   0.0138889
        k(   64) = (  -0.1666667  -1.0000000  -0.0000000), wk =   0.0069444
        k(   65) = (   0.6666667  -0.3333333   1.0000000), wk =   0.0138889
        k(   66) = (   0.5833333  -0.2500000   0.9166667), wk =   0.0277778
        k(   67) = (   0.5000000  -0.1666667   0.8333333), wk =   0.0138889
        k(   68) = (   0.6666667  -0.1666667   1.0000000), wk =   0.0138889
        k(   69) = (   0.5833333  -0.0833333   0.9166667), wk =   0.0277778
        k(   70) = (   0.5000000   0.0000000   0.8333333), wk =   0.0138889
        k(   71) = (  -0.3333333  -1.0000000   0.0000000), wk =   0.0069444
        k(   72) = (  -0.5000000  -1.0000000   0.0000000), wk =   0.0034722

     Dense  grid:     3383 G-vectors     FFT dimensions: (  24,  24,  24)

     Smooth grid:     1139 G-vectors     FFT dimensions: (  15,  15,  15)

     Estimated max dynamical RAM per process >      18.36 MB
     Generating pointlists ...
     new r_m :   0.2917 (alat units)  1.7093 (a.u.) for type    1

     Check: negative core charge=   -0.000005

     Initial potential from superposition of free atoms

     starting charge    8.99962, renormalised to    9.00000
     Starting wfcs are    6 randomized atomic wfcs +    3 random wfcs

     total cpu time spent up to now is        1.4 secs

     Self-consistent Calculation

     iteration #  1     ecut=    30.00 Ry     beta= 0.70
     Davidson diagonalization with overlap
     ethr =  1.00E-02,  avg # of iterations =  4.4

     total cpu time spent up to now is        2.8 secs

     total energy              =     -73.97301262 Ry
     Harris-Foulkes estimate   =     -73.92247728 Ry
     estimated scf accuracy    <       0.50477015 Ry

     total magnetization       =     2.13 Bohr mag/cell
     absolute magnetization    =     2.13 Bohr mag/cell

     iteration #  2     ecut=    30.00 Ry     beta= 0.70
     Davidson diagonalization with overlap
     ethr =  5.61E-03,  avg # of iterations =  1.9

     total cpu time spent up to now is        3.6 secs

     total energy              =     -74.07876120 Ry
     Harris-Foulkes estimate   =     -74.16507726 Ry
     estimated scf accuracy    <       0.24565280 Ry

     total magnetization       =     1.58 Bohr mag/cell
     absolute magnetization    =     1.62 Bohr mag/cell

     iteration #  3     ecut=    30.00 Ry     beta= 0.70
     Davidson diagonalization with overlap
     ethr =  2.73E-03,  avg # of iterations =  1.4

     total cpu time spent up to now is        4.4 secs

     total energy              =     -74.14628684 Ry
     Harris-Foulkes estimate   =     -74.13668595 Ry
     estimated scf accuracy    <       0.02575413 Ry

     total magnetization       =     1.54 Bohr mag/cell
     absolute magnetization    =     1.60 Bohr mag/cell

     iteration #  4     ecut=    30.00 Ry     beta= 0.70
     Davidson diagonalization with overlap
     ethr =  2.86E-04,  avg # of iterations =  1.0

     total cpu time spent up to now is        5.2 secs

     total energy              =     -74.15343033 Ry
     Harris-Foulkes estimate   =     -74.15545614 Ry
     estimated scf accuracy    <       0.00497194 Ry

     total magnetization       =     1.05 Bohr mag/cell
     absolute magnetization    =     1.13 Bohr mag/cell

     iteration #  5     ecut=    30.00 Ry     beta= 0.70
     Davidson diagonalization with overlap
     ethr =  5.52E-05,  avg # of iterations =  1.1

     total cpu time spent up to now is        5.9 secs

     total energy              =     -74.15123207 Ry
     Harris-Foulkes estimate   =     -74.15373391 Ry
     estimated scf accuracy    <       0.00623006 Ry

     total magnetization       =     1.14 Bohr mag/cell
     absolute magnetization    =     1.23 Bohr mag/cell

     iteration #  6     ecut=    30.00 Ry     beta= 0.70
     Davidson diagonalization with overlap
     ethr =  5.52E-05,  avg # of iterations =  1.5

     total cpu time spent up to now is        6.8 secs

     total energy              =     -74.16206358 Ry
     Harris-Foulkes estimate   =     -74.16175961 Ry
     estimated scf accuracy    <       0.00104365 Ry

     total magnetization       =     0.56 Bohr mag/cell
     absolute magnetization    =     0.60 Bohr mag/cell

     iteration #  7     ecut=    30.00 Ry     beta= 0.70
     Davidson diagonalization with overlap
     ethr =  1.16E-05,  avg # of iterations =  1.6

     total cpu time spent up to now is        7.6 secs

     total energy              =     -74.16258138 Ry
     Harris-Foulkes estimate   =     -74.16268675 Ry
     estimated scf accuracy    <       0.00050122 Ry

     total magnetization       =     0.42 Bohr mag/cell
     absolute magnetization    =     0.45 Bohr mag/cell

     iteration #  8     ecut=    30.00 Ry     beta= 0.70
     Davidson diagonalization with overlap
     ethr =  5.57E-06,  avg # of iterations =  2.0

     total cpu time spent up to now is        8.4 secs

     total energy              =     -74.16285475 Ry
     Harris-Foulkes estimate   =     -74.16369475 Ry
     estimated scf accuracy    <       0.00036166 Ry

     total magnetization       =     0.23 Bohr mag/cell
     absolute magnetization    =     0.24 Bohr mag/cell

     iteration #  9     ecut=    30.00 Ry     beta= 0.70
     Davidson diagonalization with overlap
     ethr =  4.02E-06,  avg # of iterations =  1.6

     total cpu time spent up to now is        9.3 secs

     total energy              =     -74.16409784 Ry
     Harris-Foulkes estimate   =     -74.16409480 Ry
     estimated scf accuracy    <       0.00006663 Ry

     total magnetization       =     0.03 Bohr mag/cell
     absolute magnetization    =     0.03 Bohr mag/cell

     iteration # 10     ecut=    30.00 Ry     beta= 0.70
     Davidson diagonalization with overlap
     ethr =  7.40E-07,  avg # of iterations =  1.0

     total cpu time spent up to now is       10.1 secs

     total energy              =     -74.16409551 Ry
     Harris-Foulkes estimate   =     -74.16409864 Ry
     estimated scf accuracy    <       0.00006336 Ry

     total magnetization       =     0.03 Bohr mag/cell
     absolute magnetization    =     0.03 Bohr mag/cell

     iteration # 11     ecut=    30.00 Ry     beta= 0.70
     Davidson diagonalization with overlap
     ethr =  7.04E-07,  avg # of iterations =  1.0

     total cpu time spent up to now is       10.8 secs

     total energy              =     -74.16408489 Ry
     Harris-Foulkes estimate   =     -74.16409574 Ry
     estimated scf accuracy    <       0.00005404 Ry

     total magnetization       =     0.03 Bohr mag/cell
     absolute magnetization    =     0.03 Bohr mag/cell

     iteration # 12     ecut=    30.00 Ry     beta= 0.70
     Davidson diagonalization with overlap
     ethr =  6.00E-07,  avg # of iterations =  1.0

     total cpu time spent up to now is       11.5 secs

     total energy              =     -74.16408597 Ry
     Harris-Foulkes estimate   =     -74.16410119 Ry
     estimated scf accuracy    <       0.00004024 Ry

     total magnetization       =     0.01 Bohr mag/cell
     absolute magnetization    =     0.01 Bohr mag/cell

     iteration # 13     ecut=    30.00 Ry     beta= 0.70
     Davidson diagonalization with overlap
     ethr =  4.47E-07,  avg # of iterations =  1.0

     total cpu time spent up to now is       12.3 secs

     total energy              =     -74.16409106 Ry
     Harris-Foulkes estimate   =     -74.16409131 Ry
     estimated scf accuracy    <       0.00000122 Ry

     total magnetization       =     0.00 Bohr mag/cell
     absolute magnetization    =     0.00 Bohr mag/cell

     iteration # 14     ecut=    30.00 Ry     beta= 0.70
     Davidson diagonalization with overlap
     ethr =  1.36E-08,  avg # of iterations =  1.5

     total cpu time spent up to now is       13.1 secs

     total energy              =     -74.16409097 Ry
     Harris-Foulkes estimate   =     -74.16409125 Ry
     estimated scf accuracy    <       0.00000067 Ry

     total magnetization       =     0.00 Bohr mag/cell
     absolute magnetization    =     0.00 Bohr mag/cell

     iteration # 15     ecut=    30.00 Ry     beta= 0.70
     Davidson diagonalization with overlap
     ethr =  7.42E-09,  avg # of iterations =  1.0

     total cpu time spent up to now is       13.8 secs

     total energy              =     -74.16409007 Ry
     Harris-Foulkes estimate   =     -74.16409120 Ry
     estimated scf accuracy    <       0.00000065 Ry

     total magnetization       =    -0.00 Bohr mag/cell
     absolute magnetization    =     0.00 Bohr mag/cell

     iteration # 16     ecut=    30.00 Ry     beta= 0.70
     Davidson diagonalization with overlap
     ethr =  7.17E-09,  avg # of iterations =  1.5

     total cpu time spent up to now is       14.7 secs

     total energy              =     -74.16409072 Ry
     Harris-Foulkes estimate   =     -74.16409146 Ry
     estimated scf accuracy    <       0.00000120 Ry

     total magnetization       =     0.00 Bohr mag/cell
     absolute magnetization    =     0.00 Bohr mag/cell

     iteration # 17     ecut=    30.00 Ry     beta= 0.70
     Davidson diagonalization with overlap
     ethr =  7.17E-09,  avg # of iterations =  1.5

     total cpu time spent up to now is       15.5 secs

     total energy              =     -74.16409133 Ry
     Harris-Foulkes estimate   =     -74.16409135 Ry
     estimated scf accuracy    <       0.00000047 Ry

     total magnetization       =    -0.00 Bohr mag/cell
     absolute magnetization    =     0.00 Bohr mag/cell

     iteration # 18     ecut=    30.00 Ry     beta= 0.70
     Davidson diagonalization with overlap
     ethr =  5.28E-09,  avg # of iterations =  1.0

     total cpu time spent up to now is       16.3 secs

     total energy              =     -74.16409126 Ry
     Harris-Foulkes estimate   =     -74.16409145 Ry
     estimated scf accuracy    <       0.00000081 Ry

     total magnetization       =     0.00 Bohr mag/cell
     absolute magnetization    =     0.00 Bohr mag/cell

     iteration # 19     ecut=    30.00 Ry     beta= 0.70
     Davidson diagonalization with overlap
     ethr =  5.28E-09,  avg # of iterations =  1.5

     total cpu time spent up to now is       17.2 secs

     total energy              =     -74.16409135 Ry
     Harris-Foulkes estimate   =     -74.16409138 Ry
     estimated scf accuracy    <       0.00000001 Ry

     total magnetization       =     0.00 Bohr mag/cell
     absolute magnetization    =     0.00 Bohr mag/cell

     iteration # 20     ecut=    30.00 Ry     beta= 0.70
     Davidson diagonalization with overlap
     ethr =  1.62E-10,  avg # of iterations =  2.1

     Magnetic moment per site:
     atom:    1    charge:    7.4180    magn:   -0.0002    constr:    0.0000

     total cpu time spent up to now is       18.1 secs

     End of self-consistent calculation

     Number of k-points >= 100: set verbosity='high' to print the bands.

     the Fermi energy is    22.1367 ev

!    total energy              =     -74.16409138 Ry
     Harris-Foulkes estimate   =     -74.16409139 Ry
     estimated scf accuracy    <          7.1E-09 Ry

     The total energy is the sum of the following terms:

     one-electron contribution =      14.06679622 Ry
     hartree contribution      =       7.89263899 Ry
     xc contribution           =     -32.74885279 Ry
     ewald contribution        =     -63.37437338 Ry
     smearing contrib. (-TS)   =      -0.00030042 Ry

     total magnetization       =    -0.00 Bohr mag/cell
     absolute magnetization    =     0.00 Bohr mag/cell

     convergence has been achieved in  20 iterations

     Forces acting on atoms (cartesian axes, Ry/au):

     atom    1 type  1   force =     0.00000000    0.00000000    0.00000000

     Total force =     0.000000     Total SCF correction =     0.000000


     Computing stress (Cartesian axis) and pressure

          total   stress  (Ry/bohr**3)                   (kbar)     P= 1374.62
   0.00934450  -0.00000000  -0.00000000       1374.62     -0.00     -0.00
  -0.00000000   0.00934450   0.00000000         -0.00   1374.62      0.00
  -0.00000000   0.00000000   0.00934450         -0.00      0.00   1374.62


     Writing output data file Co.FCC.save/

     init_run     :      1.06s CPU      1.11s WALL (       1 calls)
     electrons    :     16.10s CPU     16.76s WALL (       1 calls)
     forces       :      0.18s CPU      0.19s WALL (       1 calls)
     stress       :      0.42s CPU      0.43s WALL (       1 calls)

     Called by init_run:
     wfcinit      :      0.22s CPU      0.25s WALL (       1 calls)
     potinit      :      0.02s CPU      0.02s WALL (       1 calls)
     hinit0       :      0.78s CPU      0.80s WALL (       1 calls)

     Called by electrons:
     c_bands      :     11.79s CPU     12.32s WALL (      20 calls)
     sum_band     :      3.33s CPU      3.45s WALL (      20 calls)
     v_of_rho     :      0.24s CPU      0.24s WALL (      21 calls)
     newd         :      0.68s CPU      0.70s WALL (      21 calls)
     mix_rho      :      0.06s CPU      0.06s WALL (      20 calls)

     Called by c_bands:
     init_us_2    :      0.65s CPU      0.68s WALL (    6192 calls)
     cegterg      :     10.86s CPU     11.35s WALL (    2880 calls)

     Called by sum_band:
     sum_band:bec :      0.10s CPU      0.10s WALL (    2880 calls)
     addusdens    :      1.25s CPU      1.27s WALL (      20 calls)

     Called by *egterg:
     h_psi        :      5.97s CPU      6.25s WALL (    7399 calls)
     s_psi        :      0.80s CPU      0.84s WALL (    7399 calls)
     g_psi        :      0.04s CPU      0.04s WALL (    4375 calls)
     cdiaghg      :      1.78s CPU      1.86s WALL (    7255 calls)

     Called by h_psi:
     h_psi:pot    :      5.92s CPU      6.20s WALL (    7399 calls)
     h_psi:calbec :      0.88s CPU      0.92s WALL (    7399 calls)
     vloc_psi     :      4.19s CPU      4.39s WALL (    7399 calls)
     add_vuspsi   :      0.81s CPU      0.85s WALL (    7399 calls)

     General routines
     calbec       :      1.34s CPU      1.40s WALL (   10999 calls)
     fft          :      0.13s CPU      0.14s WALL (     235 calls)
     ffts         :      0.00s CPU      0.00s WALL (      82 calls)
     fftw         :      3.12s CPU      3.28s WALL (  140670 calls)
     interpolate  :      0.03s CPU      0.03s WALL (      42 calls)

     Parallel routines

     PWSCF        :     18.08s CPU     18.85s WALL


   This run was terminated on:   8:53:28  19Feb2020            

=------------------------------------------------------------------------------=
   JOB DONE.
=------------------------------------------------------------------------------=
