     Message from routine get_command_line:
     unexpected argument # 2     :-input

     Program PWSCF v.6.4.1 starts on 19Feb2020 at  6:27: 4 

     This program is part of the open-source Quantum ESPRESSO suite
     for quantum simulation of materials; please cite
         "P. Giannozzi et al., J. Phys.:Condens. Matter 21 395502 (2009);
         "P. Giannozzi et al., J. Phys.:Condens. Matter 29 465901 (2017);
          URL http://www.quantum-espresso.org", 
     in publications or presentations arising from this work. More details at
     http://www.quantum-espresso.org/quote

     Parallel version (MPI), running on     1 processors

     MPI processes distributed on     1 nodes
     Waiting for input...
     Reading input from standard input
     Message from routine read_cards :
     DEPRECATED: no units specified in ATOMIC_POSITIONS card
     Message from routine read_cards :
     ATOMIC_POSITIONS: units set to alat

     Current dimensions of program PWSCF are:
     Max number of different atomic species (ntypx) = 10
     Max number of k-points (npk) =  40000
     Max angular momentum in pseudopotentials (lmaxx) =  3
               file Co.pz-nd-rrkjus.UPF: wavefunction(s)  4S 3D renormalized

     Subspace diagonalization in iterative solution of the eigenvalue problem:
     a serial algorithm will be used


     G-vector sticks info
     --------------------
     sticks:   dense  smooth     PW     G-vecs:    dense   smooth      PW
     Sum         313     151     55                 3647     1243     283



     bravais-lattice index     =            2
     lattice parameter (alat)  =       6.0000  a.u.
     unit-cell volume          =      54.0000 (a.u.)^3
     number of atoms/cell      =            1
     number of atomic types    =            1
     number of electrons       =         9.00
     number of Kohn-Sham states=            9
     kinetic-energy cutoff     =      30.0000  Ry
     charge density cutoff     =     250.0000  Ry
     convergence threshold     =      1.0E-08
     mixing beta               =       0.7000
     number of iterations used =            8  plain     mixing
     Exchange-correlation      =  SLA  PZ   NOGX NOGC ( 1  1  0  0 0 0)

     celldm(1)=   6.000000  celldm(2)=   0.000000  celldm(3)=   0.000000
     celldm(4)=   0.000000  celldm(5)=   0.000000  celldm(6)=   0.000000

     crystal axes: (cart. coord. in units of alat)
               a(1) = (  -0.500000   0.000000   0.500000 )  
               a(2) = (   0.000000   0.500000   0.500000 )  
               a(3) = (  -0.500000   0.500000   0.000000 )  

     reciprocal axes: (cart. coord. in units 2 pi/alat)
               b(1) = ( -1.000000 -1.000000  1.000000 )  
               b(2) = (  1.000000  1.000000  1.000000 )  
               b(3) = ( -1.000000  1.000000 -1.000000 )  


     PseudoPot. # 1 for Co read from file:
     ./Co.pz-nd-rrkjus.UPF
     MD5 check sum: c80159f6ca3a93d3df3cfc6468bb3c3d
     Pseudo is Ultrasoft + core correction, Zval =  9.0
     Generated by new atomic code, or converted to UPF format
     Using radial grid of  961 points,  6 beta functions with: 
                l(1) =   0
                l(2) =   0
                l(3) =   1
                l(4) =   1
                l(5) =   2
                l(6) =   2
     Q(r) pseudized with 0 coefficients 


     atomic species   valence    mass     pseudopotential
        Co             9.00    58.93300     Co( 1.00)

     Starting magnetic structure 
     atomic species   magnetization
        Co           0.700

     48 Sym. Ops., with inversion, found



   Cartesian axes

     site n.     atom                  positions (alat units)
         1           Co  tau(   1) = (   0.0000000   0.0000000   0.0000000  )

     number of k points=    72  Marzari-Vanderbilt smearing, width (Ry)=  0.0300
                       cart. coord. in units 2pi/alat
        k(    1) = (   0.0000000   0.0000000   0.0000000), wk =   0.0005787
        k(    2) = (  -0.0833333   0.0833333  -0.0833333), wk =   0.0046296
        k(    3) = (  -0.1666667   0.1666667  -0.1666667), wk =   0.0046296
        k(    4) = (  -0.2500000   0.2500000  -0.2500000), wk =   0.0046296
        k(    5) = (  -0.3333333   0.3333333  -0.3333333), wk =   0.0046296
        k(    6) = (  -0.4166667   0.4166667  -0.4166667), wk =   0.0046296
        k(    7) = (   0.5000000  -0.5000000   0.5000000), wk =   0.0023148
        k(    8) = (   0.0000000   0.1666667   0.0000000), wk =   0.0034722
        k(    9) = (  -0.0833333   0.2500000  -0.0833333), wk =   0.0138889
        k(   10) = (  -0.1666667   0.3333333  -0.1666667), wk =   0.0138889
        k(   11) = (  -0.2500000   0.4166667  -0.2500000), wk =   0.0138889
        k(   12) = (  -0.3333333   0.5000000  -0.3333333), wk =   0.0138889
        k(   13) = (   0.5833333  -0.4166667   0.5833333), wk =   0.0138889
        k(   14) = (   0.5000000  -0.3333333   0.5000000), wk =   0.0138889
        k(   15) = (   0.4166667  -0.2500000   0.4166667), wk =   0.0138889
        k(   16) = (   0.3333333  -0.1666667   0.3333333), wk =   0.0138889
        k(   17) = (   0.2500000  -0.0833333   0.2500000), wk =   0.0138889
        k(   18) = (   0.1666667  -0.0000000   0.1666667), wk =   0.0069444
        k(   19) = (   0.0000000   0.3333333   0.0000000), wk =   0.0034722
        k(   20) = (  -0.0833333   0.4166667  -0.0833333), wk =   0.0138889
        k(   21) = (  -0.1666667   0.5000000  -0.1666667), wk =   0.0138889
        k(   22) = (  -0.2500000   0.5833333  -0.2500000), wk =   0.0138889
        k(   23) = (   0.6666667  -0.3333333   0.6666667), wk =   0.0138889
        k(   24) = (   0.5833333  -0.2500000   0.5833333), wk =   0.0138889
        k(   25) = (   0.5000000  -0.1666667   0.5000000), wk =   0.0138889
        k(   26) = (   0.4166667  -0.0833333   0.4166667), wk =   0.0138889
        k(   27) = (   0.3333333   0.0000000   0.3333333), wk =   0.0069444
        k(   28) = (   0.0000000   0.5000000   0.0000000), wk =   0.0034722
        k(   29) = (  -0.0833333   0.5833333  -0.0833333), wk =   0.0138889
        k(   30) = (  -0.1666667   0.6666667  -0.1666667), wk =   0.0138889
        k(   31) = (   0.7500000  -0.2500000   0.7500000), wk =   0.0138889
        k(   32) = (   0.6666667  -0.1666667   0.6666667), wk =   0.0138889
        k(   33) = (   0.5833333  -0.0833333   0.5833333), wk =   0.0138889
        k(   34) = (   0.5000000   0.0000000   0.5000000), wk =   0.0069444
        k(   35) = (   0.0000000   0.6666667   0.0000000), wk =   0.0034722
        k(   36) = (  -0.0833333   0.7500000  -0.0833333), wk =   0.0138889
        k(   37) = (   0.8333333  -0.1666667   0.8333333), wk =   0.0138889
        k(   38) = (   0.7500000  -0.0833333   0.7500000), wk =   0.0138889
        k(   39) = (   0.6666667  -0.0000000   0.6666667), wk =   0.0069444
        k(   40) = (   0.0000000   0.8333333   0.0000000), wk =   0.0034722
        k(   41) = (   0.9166667  -0.0833333   0.9166667), wk =   0.0138889
        k(   42) = (   0.8333333   0.0000000   0.8333333), wk =   0.0069444
        k(   43) = (   0.0000000  -1.0000000   0.0000000), wk =   0.0017361
        k(   44) = (  -0.1666667   0.3333333   0.0000000), wk =   0.0138889
        k(   45) = (  -0.2500000   0.4166667  -0.0833333), wk =   0.0277778
        k(   46) = (  -0.3333333   0.5000000  -0.1666667), wk =   0.0277778
        k(   47) = (   0.5833333  -0.4166667   0.7500000), wk =   0.0277778
        k(   48) = (   0.5000000  -0.3333333   0.6666667), wk =   0.0138889
        k(   49) = (  -0.1666667   0.5000000   0.0000000), wk =   0.0138889
        k(   50) = (  -0.2500000   0.5833333  -0.0833333), wk =   0.0277778
        k(   51) = (   0.6666667  -0.3333333   0.8333333), wk =   0.0277778
        k(   52) = (   0.5833333  -0.2500000   0.7500000), wk =   0.0277778
        k(   53) = (   0.5000000  -0.1666667   0.6666667), wk =   0.0277778
        k(   54) = (   0.4166667  -0.0833333   0.5833333), wk =   0.0277778
        k(   55) = (   0.3333333   0.0000000   0.5000000), wk =   0.0138889
        k(   56) = (  -0.1666667   0.6666667  -0.0000000), wk =   0.0138889
        k(   57) = (   0.7500000  -0.2500000   0.9166667), wk =   0.0277778
        k(   58) = (   0.6666667  -0.1666667   0.8333333), wk =   0.0277778
        k(   59) = (   0.5833333  -0.0833333   0.7500000), wk =   0.0277778
        k(   60) = (   0.5000000   0.0000000   0.6666667), wk =   0.0138889
        k(   61) = (   0.8333333  -0.1666667   1.0000000), wk =   0.0138889
        k(   62) = (   0.7500000  -0.0833333   0.9166667), wk =   0.0277778
        k(   63) = (   0.6666667   0.0000000   0.8333333), wk =   0.0138889
        k(   64) = (  -0.1666667  -1.0000000  -0.0000000), wk =   0.0069444
        k(   65) = (   0.6666667  -0.3333333   1.0000000), wk =   0.0138889
        k(   66) = (   0.5833333  -0.2500000   0.9166667), wk =   0.0277778
        k(   67) = (   0.5000000  -0.1666667   0.8333333), wk =   0.0138889
        k(   68) = (   0.6666667  -0.1666667   1.0000000), wk =   0.0138889
        k(   69) = (   0.5833333  -0.0833333   0.9166667), wk =   0.0277778
        k(   70) = (   0.5000000   0.0000000   0.8333333), wk =   0.0138889
        k(   71) = (  -0.3333333  -1.0000000   0.0000000), wk =   0.0069444
        k(   72) = (  -0.5000000  -1.0000000   0.0000000), wk =   0.0034722

     Dense  grid:     3647 G-vectors     FFT dimensions: (  24,  24,  24)

     Smooth grid:     1243 G-vectors     FFT dimensions: (  15,  15,  15)

     Estimated max dynamical RAM per process >      19.60 MB
     Generating pointlists ...
     new r_m :   0.2917 (alat units)  1.7501 (a.u.) for type    1

     Check: negative core charge=   -0.000013

     Initial potential from superposition of free atoms

     starting charge    8.99962, renormalised to    9.00000
     Starting wfcs are    6 randomized atomic wfcs +    3 random wfcs

     total cpu time spent up to now is        2.3 secs

     Self-consistent Calculation

     iteration #  1     ecut=    30.00 Ry     beta= 0.70
     Davidson diagonalization with overlap
     ethr =  1.00E-02,  avg # of iterations =  4.3

     total cpu time spent up to now is        3.8 secs

     total energy              =     -73.98205137 Ry
     Harris-Foulkes estimate   =     -73.97596952 Ry
     estimated scf accuracy    <       0.51929593 Ry

     total magnetization       =     2.25 Bohr mag/cell
     absolute magnetization    =     2.25 Bohr mag/cell

     iteration #  2     ecut=    30.00 Ry     beta= 0.70
     Davidson diagonalization with overlap
     ethr =  5.77E-03,  avg # of iterations =  2.0

     total cpu time spent up to now is        4.7 secs

     total energy              =     -74.09604773 Ry
     Harris-Foulkes estimate   =     -74.21560117 Ry
     estimated scf accuracy    <       0.31357627 Ry

     total magnetization       =     1.64 Bohr mag/cell
     absolute magnetization    =     1.69 Bohr mag/cell

     iteration #  3     ecut=    30.00 Ry     beta= 0.70
     Davidson diagonalization with overlap
     ethr =  3.48E-03,  avg # of iterations =  1.4

     total cpu time spent up to now is        5.5 secs

     total energy              =     -74.17792238 Ry
     Harris-Foulkes estimate   =     -74.16611778 Ry
     estimated scf accuracy    <       0.02479561 Ry

     total magnetization       =     1.63 Bohr mag/cell
     absolute magnetization    =     1.69 Bohr mag/cell

     iteration #  4     ecut=    30.00 Ry     beta= 0.70
     Davidson diagonalization with overlap
     ethr =  2.76E-04,  avg # of iterations =  1.0

     total cpu time spent up to now is        6.3 secs

     total energy              =     -74.18552552 Ry
     Harris-Foulkes estimate   =     -74.18542602 Ry
     estimated scf accuracy    <       0.00269228 Ry

     total magnetization       =     1.20 Bohr mag/cell
     absolute magnetization    =     1.29 Bohr mag/cell

     iteration #  5     ecut=    30.00 Ry     beta= 0.70
     Davidson diagonalization with overlap
     ethr =  2.99E-05,  avg # of iterations =  1.3

     total cpu time spent up to now is        7.1 secs

     total energy              =     -74.18310035 Ry
     Harris-Foulkes estimate   =     -74.18558646 Ry
     estimated scf accuracy    <       0.00273550 Ry

     total magnetization       =     1.20 Bohr mag/cell
     absolute magnetization    =     1.28 Bohr mag/cell

     iteration #  6     ecut=    30.00 Ry     beta= 0.70
     Davidson diagonalization with overlap
     ethr =  2.99E-05,  avg # of iterations =  1.5

     total cpu time spent up to now is        7.9 secs

     total energy              =     -74.17584421 Ry
     Harris-Foulkes estimate   =     -74.18454481 Ry
     estimated scf accuracy    <       0.00963924 Ry

     total magnetization       =     1.33 Bohr mag/cell
     absolute magnetization    =     1.43 Bohr mag/cell

     iteration #  7     ecut=    30.00 Ry     beta= 0.70
     Davidson diagonalization with overlap
     ethr =  2.99E-05,  avg # of iterations =  2.3

     total cpu time spent up to now is        8.9 secs

     total energy              =     -74.19051548 Ry
     Harris-Foulkes estimate   =     -74.19091815 Ry
     estimated scf accuracy    <       0.00375409 Ry

     total magnetization       =     0.73 Bohr mag/cell
     absolute magnetization    =     0.77 Bohr mag/cell

     iteration #  8     ecut=    30.00 Ry     beta= 0.70
     Davidson diagonalization with overlap
     ethr =  2.99E-05,  avg # of iterations =  1.0

     total cpu time spent up to now is        9.7 secs

     total energy              =     -74.17072905 Ry
     Harris-Foulkes estimate   =     -74.19063996 Ry
     estimated scf accuracy    <       0.00405594 Ry

     total magnetization       =     0.80 Bohr mag/cell
     absolute magnetization    =     0.84 Bohr mag/cell

     iteration #  9     ecut=    30.00 Ry     beta= 0.70
     Davidson diagonalization with overlap
     ethr =  2.99E-05,  avg # of iterations =  1.8

     total cpu time spent up to now is       10.6 secs

     total energy              =     -74.19278636 Ry
     Harris-Foulkes estimate   =     -74.19234887 Ry
     estimated scf accuracy    <       0.00289249 Ry

     total magnetization       =    -0.07 Bohr mag/cell
     absolute magnetization    =     0.07 Bohr mag/cell

     iteration # 10     ecut=    30.00 Ry     beta= 0.70
     Davidson diagonalization with overlap
     ethr =  2.99E-05,  avg # of iterations =  1.3

     total cpu time spent up to now is       11.4 secs

     total energy              =     -74.18984831 Ry
     Harris-Foulkes estimate   =     -74.19403057 Ry
     estimated scf accuracy    <       0.00855432 Ry

     total magnetization       =     0.11 Bohr mag/cell
     absolute magnetization    =     0.13 Bohr mag/cell

     iteration # 11     ecut=    30.00 Ry     beta= 0.70
     Davidson diagonalization with overlap
     ethr =  2.99E-05,  avg # of iterations =  2.0

     total cpu time spent up to now is       12.4 secs

     total energy              =     -74.19153299 Ry
     Harris-Foulkes estimate   =     -74.19152765 Ry
     estimated scf accuracy    <       0.00005858 Ry

     total magnetization       =     0.14 Bohr mag/cell
     absolute magnetization    =     0.15 Bohr mag/cell

     iteration # 12     ecut=    30.00 Ry     beta= 0.70
     Davidson diagonalization with overlap
     ethr =  6.51E-07,  avg # of iterations =  2.1

     total cpu time spent up to now is       13.2 secs

     total energy              =     -74.19155120 Ry
     Harris-Foulkes estimate   =     -74.19155139 Ry
     estimated scf accuracy    <       0.00003993 Ry

     total magnetization       =     0.12 Bohr mag/cell
     absolute magnetization    =     0.13 Bohr mag/cell

     iteration # 13     ecut=    30.00 Ry     beta= 0.70
     Davidson diagonalization with overlap
     ethr =  4.44E-07,  avg # of iterations =  1.0

     total cpu time spent up to now is       14.0 secs

     total energy              =     -74.19154551 Ry
     Harris-Foulkes estimate   =     -74.19155144 Ry
     estimated scf accuracy    <       0.00003830 Ry

     total magnetization       =     0.12 Bohr mag/cell
     absolute magnetization    =     0.13 Bohr mag/cell

     iteration # 14     ecut=    30.00 Ry     beta= 0.70
     Davidson diagonalization with overlap
     ethr =  4.26E-07,  avg # of iterations =  1.0

     total cpu time spent up to now is       14.8 secs

     total energy              =     -74.19152133 Ry
     Harris-Foulkes estimate   =     -74.19154753 Ry
     estimated scf accuracy    <       0.00004634 Ry

     total magnetization       =     0.13 Bohr mag/cell
     absolute magnetization    =     0.13 Bohr mag/cell

     iteration # 15     ecut=    30.00 Ry     beta= 0.70
     Davidson diagonalization with overlap
     ethr =  4.26E-07,  avg # of iterations =  1.1

     total cpu time spent up to now is       15.6 secs

     total energy              =     -74.19148055 Ry
     Harris-Foulkes estimate   =     -74.19157524 Ry
     estimated scf accuracy    <       0.00001489 Ry

     total magnetization       =     0.08 Bohr mag/cell
     absolute magnetization    =     0.08 Bohr mag/cell

     iteration # 16     ecut=    30.00 Ry     beta= 0.70
     Davidson diagonalization with overlap
     ethr =  1.65E-07,  avg # of iterations =  2.0

     total cpu time spent up to now is       16.5 secs

     total energy              =     -74.19158190 Ry
     Harris-Foulkes estimate   =     -74.19159449 Ry
     estimated scf accuracy    <       0.00000094 Ry

     total magnetization       =     0.01 Bohr mag/cell
     absolute magnetization    =     0.02 Bohr mag/cell

     iteration # 17     ecut=    30.00 Ry     beta= 0.70
     Davidson diagonalization with overlap
     ethr =  1.04E-08,  avg # of iterations =  2.3

     total cpu time spent up to now is       17.5 secs

     total energy              =     -74.19158809 Ry
     Harris-Foulkes estimate   =     -74.19159615 Ry
     estimated scf accuracy    <       0.00000165 Ry

     total magnetization       =    -0.01 Bohr mag/cell
     absolute magnetization    =     0.01 Bohr mag/cell

     iteration # 18     ecut=    30.00 Ry     beta= 0.70
     Davidson diagonalization with overlap
     ethr =  1.04E-08,  avg # of iterations =  1.7

     total cpu time spent up to now is       18.4 secs

     total energy              =     -74.19159473 Ry
     Harris-Foulkes estimate   =     -74.19159683 Ry
     estimated scf accuracy    <       0.00000106 Ry

     total magnetization       =     0.01 Bohr mag/cell
     absolute magnetization    =     0.01 Bohr mag/cell

     iteration # 19     ecut=    30.00 Ry     beta= 0.70
     Davidson diagonalization with overlap
     ethr =  1.04E-08,  avg # of iterations =  1.5

     total cpu time spent up to now is       19.3 secs

     total energy              =     -74.19159640 Ry
     Harris-Foulkes estimate   =     -74.19159654 Ry
     estimated scf accuracy    <       0.00000036 Ry

     total magnetization       =     0.00 Bohr mag/cell
     absolute magnetization    =     0.00 Bohr mag/cell

     iteration # 20     ecut=    30.00 Ry     beta= 0.70
     Davidson diagonalization with overlap
     ethr =  3.97E-09,  avg # of iterations =  1.3

     total cpu time spent up to now is       20.1 secs

     total energy              =     -74.19159681 Ry
     Harris-Foulkes estimate   =     -74.19159661 Ry
     estimated scf accuracy    <       0.00000060 Ry

     total magnetization       =    -0.00 Bohr mag/cell
     absolute magnetization    =     0.00 Bohr mag/cell

     iteration # 21     ecut=    30.00 Ry     beta= 0.70
     Davidson diagonalization with overlap
     ethr =  3.97E-09,  avg # of iterations =  1.7

     Magnetic moment per site:
     atom:    1    charge:    7.4641    magn:    0.0005    constr:    0.0000

     total cpu time spent up to now is       20.9 secs

     End of self-consistent calculation

     Number of k-points >= 100: set verbosity='high' to print the bands.

     the Fermi energy is    20.3014 ev

!    total energy              =     -74.19159694 Ry
     Harris-Foulkes estimate   =     -74.19159694 Ry
     estimated scf accuracy    <          1.9E-09 Ry

     The total energy is the sum of the following terms:

     one-electron contribution =      11.98522911 Ry
     hartree contribution      =       8.36943477 Ry
     xc contribution           =     -32.64997398 Ry
     ewald contribution        =     -61.89563800 Ry
     smearing contrib. (-TS)   =      -0.00064884 Ry

     total magnetization       =     0.00 Bohr mag/cell
     absolute magnetization    =     0.00 Bohr mag/cell

     convergence has been achieved in  21 iterations

     Forces acting on atoms (cartesian axes, Ry/au):

     atom    1 type  1   force =     0.00000000    0.00000000    0.00000000

     Total force =     0.000000     Total SCF correction =     0.000000


     Computing stress (Cartesian axis) and pressure

          total   stress  (Ry/bohr**3)                   (kbar)     P=  834.10
   0.00567009   0.00000000   0.00000000        834.10      0.00      0.00
   0.00000000   0.00567009   0.00000000          0.00    834.10      0.00
  -0.00000000  -0.00000000   0.00567009         -0.00     -0.00    834.10


     Writing output data file Co.FCC.save/

     init_run     :      1.18s CPU      1.58s WALL (       1 calls)
     electrons    :     17.91s CPU     18.73s WALL (       1 calls)
     forces       :      0.21s CPU      0.22s WALL (       1 calls)
     stress       :      0.43s CPU      0.43s WALL (       1 calls)

     Called by init_run:
     wfcinit      :      0.26s CPU      0.36s WALL (       1 calls)
     potinit      :      0.02s CPU      0.04s WALL (       1 calls)
     hinit0       :      0.86s CPU      1.09s WALL (       1 calls)

     Called by electrons:
     c_bands      :     13.22s CPU     13.86s WALL (      21 calls)
     sum_band     :      3.61s CPU      3.69s WALL (      21 calls)
     v_of_rho     :      0.26s CPU      0.27s WALL (      22 calls)
     newd         :      0.76s CPU      0.77s WALL (      22 calls)
     mix_rho      :      0.06s CPU      0.08s WALL (      21 calls)

     Called by c_bands:
     init_us_2    :      0.73s CPU      0.76s WALL (    6480 calls)
     cegterg      :     12.21s CPU     12.80s WALL (    3024 calls)

     Called by sum_band:
     sum_band:bec :      0.10s CPU      0.10s WALL (    3024 calls)
     addusdens    :      1.39s CPU      1.40s WALL (      21 calls)

     Called by *egterg:
     h_psi        :      6.51s CPU      6.84s WALL (    8292 calls)
     s_psi        :      0.91s CPU      0.96s WALL (    8292 calls)
     g_psi        :      0.05s CPU      0.05s WALL (    5124 calls)
     cdiaghg      :      2.06s CPU      2.25s WALL (    8148 calls)

     Called by h_psi:
     h_psi:pot    :      6.46s CPU      6.78s WALL (    8292 calls)
     h_psi:calbec :      1.04s CPU      1.09s WALL (    8292 calls)
     vloc_psi     :      4.48s CPU      4.70s WALL (    8292 calls)
     add_vuspsi   :      0.91s CPU      0.95s WALL (    8292 calls)

     General routines
     calbec       :      1.55s CPU      1.62s WALL (   12036 calls)
     fft          :      0.16s CPU      0.26s WALL (     246 calls)
     ffts         :      0.00s CPU      0.00s WALL (      86 calls)
     fftw         :      3.30s CPU      3.46s WALL (  152814 calls)
     interpolate  :      0.03s CPU      0.03s WALL (      44 calls)

     Parallel routines

     PWSCF        :     20.19s CPU     22.18s WALL


   This run was terminated on:   6:27:26  19Feb2020            

=------------------------------------------------------------------------------=
   JOB DONE.
=------------------------------------------------------------------------------=
