     Message from routine get_command_line:
     unexpected argument # 2     :-input

     Program PWSCF v.6.4.1 starts on 19Feb2020 at  6:30:58 

     This program is part of the open-source Quantum ESPRESSO suite
     for quantum simulation of materials; please cite
         "P. Giannozzi et al., J. Phys.:Condens. Matter 21 395502 (2009);
         "P. Giannozzi et al., J. Phys.:Condens. Matter 29 465901 (2017);
          URL http://www.quantum-espresso.org", 
     in publications or presentations arising from this work. More details at
     http://www.quantum-espresso.org/quote

     Parallel version (MPI), running on     1 processors

     MPI processes distributed on     1 nodes
     Waiting for input...
     Reading input from standard input
     Message from routine read_cards :
     DEPRECATED: no units specified in ATOMIC_POSITIONS card
     Message from routine read_cards :
     ATOMIC_POSITIONS: units set to alat

     Current dimensions of program PWSCF are:
     Max number of different atomic species (ntypx) = 10
     Max number of k-points (npk) =  40000
     Max angular momentum in pseudopotentials (lmaxx) =  3
               file Co.pz-nd-rrkjus.UPF: wavefunction(s)  4S 3D renormalized

     Subspace diagonalization in iterative solution of the eigenvalue problem:
     a serial algorithm will be used


     G-vector sticks info
     --------------------
     sticks:   dense  smooth     PW     G-vecs:    dense   smooth      PW
     Sum         337     163     61                 4015     1363     331



     bravais-lattice index     =            2
     lattice parameter (alat)  =       6.2200  a.u.
     unit-cell volume          =      60.1605 (a.u.)^3
     number of atoms/cell      =            1
     number of atomic types    =            1
     number of electrons       =         9.00
     number of Kohn-Sham states=            9
     kinetic-energy cutoff     =      30.0000  Ry
     charge density cutoff     =     250.0000  Ry
     convergence threshold     =      1.0E-08
     mixing beta               =       0.7000
     number of iterations used =            8  plain     mixing
     Exchange-correlation      =  SLA  PZ   NOGX NOGC ( 1  1  0  0 0 0)

     celldm(1)=   6.220000  celldm(2)=   0.000000  celldm(3)=   0.000000
     celldm(4)=   0.000000  celldm(5)=   0.000000  celldm(6)=   0.000000

     crystal axes: (cart. coord. in units of alat)
               a(1) = (  -0.500000   0.000000   0.500000 )  
               a(2) = (   0.000000   0.500000   0.500000 )  
               a(3) = (  -0.500000   0.500000   0.000000 )  

     reciprocal axes: (cart. coord. in units 2 pi/alat)
               b(1) = ( -1.000000 -1.000000  1.000000 )  
               b(2) = (  1.000000  1.000000  1.000000 )  
               b(3) = ( -1.000000  1.000000 -1.000000 )  


     PseudoPot. # 1 for Co read from file:
     ./Co.pz-nd-rrkjus.UPF
     MD5 check sum: c80159f6ca3a93d3df3cfc6468bb3c3d
     Pseudo is Ultrasoft + core correction, Zval =  9.0
     Generated by new atomic code, or converted to UPF format
     Using radial grid of  961 points,  6 beta functions with: 
                l(1) =   0
                l(2) =   0
                l(3) =   1
                l(4) =   1
                l(5) =   2
                l(6) =   2
     Q(r) pseudized with 0 coefficients 


     atomic species   valence    mass     pseudopotential
        Co             9.00    58.93300     Co( 1.00)

     Starting magnetic structure 
     atomic species   magnetization
        Co           0.700

     48 Sym. Ops., with inversion, found



   Cartesian axes

     site n.     atom                  positions (alat units)
         1           Co  tau(   1) = (   0.0000000   0.0000000   0.0000000  )

     number of k points=    72  Marzari-Vanderbilt smearing, width (Ry)=  0.0300
                       cart. coord. in units 2pi/alat
        k(    1) = (   0.0000000   0.0000000   0.0000000), wk =   0.0005787
        k(    2) = (  -0.0833333   0.0833333  -0.0833333), wk =   0.0046296
        k(    3) = (  -0.1666667   0.1666667  -0.1666667), wk =   0.0046296
        k(    4) = (  -0.2500000   0.2500000  -0.2500000), wk =   0.0046296
        k(    5) = (  -0.3333333   0.3333333  -0.3333333), wk =   0.0046296
        k(    6) = (  -0.4166667   0.4166667  -0.4166667), wk =   0.0046296
        k(    7) = (   0.5000000  -0.5000000   0.5000000), wk =   0.0023148
        k(    8) = (   0.0000000   0.1666667   0.0000000), wk =   0.0034722
        k(    9) = (  -0.0833333   0.2500000  -0.0833333), wk =   0.0138889
        k(   10) = (  -0.1666667   0.3333333  -0.1666667), wk =   0.0138889
        k(   11) = (  -0.2500000   0.4166667  -0.2500000), wk =   0.0138889
        k(   12) = (  -0.3333333   0.5000000  -0.3333333), wk =   0.0138889
        k(   13) = (   0.5833333  -0.4166667   0.5833333), wk =   0.0138889
        k(   14) = (   0.5000000  -0.3333333   0.5000000), wk =   0.0138889
        k(   15) = (   0.4166667  -0.2500000   0.4166667), wk =   0.0138889
        k(   16) = (   0.3333333  -0.1666667   0.3333333), wk =   0.0138889
        k(   17) = (   0.2500000  -0.0833333   0.2500000), wk =   0.0138889
        k(   18) = (   0.1666667  -0.0000000   0.1666667), wk =   0.0069444
        k(   19) = (   0.0000000   0.3333333   0.0000000), wk =   0.0034722
        k(   20) = (  -0.0833333   0.4166667  -0.0833333), wk =   0.0138889
        k(   21) = (  -0.1666667   0.5000000  -0.1666667), wk =   0.0138889
        k(   22) = (  -0.2500000   0.5833333  -0.2500000), wk =   0.0138889
        k(   23) = (   0.6666667  -0.3333333   0.6666667), wk =   0.0138889
        k(   24) = (   0.5833333  -0.2500000   0.5833333), wk =   0.0138889
        k(   25) = (   0.5000000  -0.1666667   0.5000000), wk =   0.0138889
        k(   26) = (   0.4166667  -0.0833333   0.4166667), wk =   0.0138889
        k(   27) = (   0.3333333   0.0000000   0.3333333), wk =   0.0069444
        k(   28) = (   0.0000000   0.5000000   0.0000000), wk =   0.0034722
        k(   29) = (  -0.0833333   0.5833333  -0.0833333), wk =   0.0138889
        k(   30) = (  -0.1666667   0.6666667  -0.1666667), wk =   0.0138889
        k(   31) = (   0.7500000  -0.2500000   0.7500000), wk =   0.0138889
        k(   32) = (   0.6666667  -0.1666667   0.6666667), wk =   0.0138889
        k(   33) = (   0.5833333  -0.0833333   0.5833333), wk =   0.0138889
        k(   34) = (   0.5000000   0.0000000   0.5000000), wk =   0.0069444
        k(   35) = (   0.0000000   0.6666667   0.0000000), wk =   0.0034722
        k(   36) = (  -0.0833333   0.7500000  -0.0833333), wk =   0.0138889
        k(   37) = (   0.8333333  -0.1666667   0.8333333), wk =   0.0138889
        k(   38) = (   0.7500000  -0.0833333   0.7500000), wk =   0.0138889
        k(   39) = (   0.6666667  -0.0000000   0.6666667), wk =   0.0069444
        k(   40) = (   0.0000000   0.8333333   0.0000000), wk =   0.0034722
        k(   41) = (   0.9166667  -0.0833333   0.9166667), wk =   0.0138889
        k(   42) = (   0.8333333   0.0000000   0.8333333), wk =   0.0069444
        k(   43) = (   0.0000000  -1.0000000   0.0000000), wk =   0.0017361
        k(   44) = (  -0.1666667   0.3333333   0.0000000), wk =   0.0138889
        k(   45) = (  -0.2500000   0.4166667  -0.0833333), wk =   0.0277778
        k(   46) = (  -0.3333333   0.5000000  -0.1666667), wk =   0.0277778
        k(   47) = (   0.5833333  -0.4166667   0.7500000), wk =   0.0277778
        k(   48) = (   0.5000000  -0.3333333   0.6666667), wk =   0.0138889
        k(   49) = (  -0.1666667   0.5000000   0.0000000), wk =   0.0138889
        k(   50) = (  -0.2500000   0.5833333  -0.0833333), wk =   0.0277778
        k(   51) = (   0.6666667  -0.3333333   0.8333333), wk =   0.0277778
        k(   52) = (   0.5833333  -0.2500000   0.7500000), wk =   0.0277778
        k(   53) = (   0.5000000  -0.1666667   0.6666667), wk =   0.0277778
        k(   54) = (   0.4166667  -0.0833333   0.5833333), wk =   0.0277778
        k(   55) = (   0.3333333   0.0000000   0.5000000), wk =   0.0138889
        k(   56) = (  -0.1666667   0.6666667  -0.0000000), wk =   0.0138889
        k(   57) = (   0.7500000  -0.2500000   0.9166667), wk =   0.0277778
        k(   58) = (   0.6666667  -0.1666667   0.8333333), wk =   0.0277778
        k(   59) = (   0.5833333  -0.0833333   0.7500000), wk =   0.0277778
        k(   60) = (   0.5000000   0.0000000   0.6666667), wk =   0.0138889
        k(   61) = (   0.8333333  -0.1666667   1.0000000), wk =   0.0138889
        k(   62) = (   0.7500000  -0.0833333   0.9166667), wk =   0.0277778
        k(   63) = (   0.6666667   0.0000000   0.8333333), wk =   0.0138889
        k(   64) = (  -0.1666667  -1.0000000  -0.0000000), wk =   0.0069444
        k(   65) = (   0.6666667  -0.3333333   1.0000000), wk =   0.0138889
        k(   66) = (   0.5833333  -0.2500000   0.9166667), wk =   0.0277778
        k(   67) = (   0.5000000  -0.1666667   0.8333333), wk =   0.0138889
        k(   68) = (   0.6666667  -0.1666667   1.0000000), wk =   0.0138889
        k(   69) = (   0.5833333  -0.0833333   0.9166667), wk =   0.0277778
        k(   70) = (   0.5000000   0.0000000   0.8333333), wk =   0.0138889
        k(   71) = (  -0.3333333  -1.0000000   0.0000000), wk =   0.0069444
        k(   72) = (  -0.5000000  -1.0000000   0.0000000), wk =   0.0034722

     Dense  grid:     4015 G-vectors     FFT dimensions: (  24,  24,  24)

     Smooth grid:     1363 G-vectors     FFT dimensions: (  15,  15,  15)

     Estimated max dynamical RAM per process >      21.39 MB
     Generating pointlists ...
     new r_m :   0.2917 (alat units)  1.8143 (a.u.) for type    1

     Check: negative core charge=   -0.000015

     Initial potential from superposition of free atoms

     starting charge    8.99962, renormalised to    9.00000
     Starting wfcs are    6 randomized atomic wfcs +    3 random wfcs

     total cpu time spent up to now is        1.4 secs

     Self-consistent Calculation

     iteration #  1     ecut=    30.00 Ry     beta= 0.70
     Davidson diagonalization with overlap
     ethr =  1.00E-02,  avg # of iterations =  4.4

     total cpu time spent up to now is        3.0 secs

     total energy              =     -73.98943544 Ry
     Harris-Foulkes estimate   =     -74.03460685 Ry
     estimated scf accuracy    <       0.55327129 Ry

     total magnetization       =     2.32 Bohr mag/cell
     absolute magnetization    =     2.32 Bohr mag/cell

     iteration #  2     ecut=    30.00 Ry     beta= 0.70
     Davidson diagonalization with overlap
     ethr =  6.15E-03,  avg # of iterations =  2.0

     total cpu time spent up to now is        4.0 secs

     total energy              =     -74.10174315 Ry
     Harris-Foulkes estimate   =     -74.28034478 Ry
     estimated scf accuracy    <       0.43985941 Ry

     total magnetization       =     1.67 Bohr mag/cell
     absolute magnetization    =     1.72 Bohr mag/cell

     iteration #  3     ecut=    30.00 Ry     beta= 0.70
     Davidson diagonalization with overlap
     ethr =  4.89E-03,  avg # of iterations =  1.2

     total cpu time spent up to now is        4.8 secs

     total energy              =     -74.20663968 Ry
     Harris-Foulkes estimate   =     -74.19446334 Ry
     estimated scf accuracy    <       0.02231497 Ry

     total magnetization       =     1.74 Bohr mag/cell
     absolute magnetization    =     1.80 Bohr mag/cell

     iteration #  4     ecut=    30.00 Ry     beta= 0.70
     Davidson diagonalization with overlap
     ethr =  2.48E-04,  avg # of iterations =  1.3

     total cpu time spent up to now is        5.6 secs

     total energy              =     -74.21281252 Ry
     Harris-Foulkes estimate   =     -74.21258947 Ry
     estimated scf accuracy    <       0.00063519 Ry

     total magnetization       =     1.46 Bohr mag/cell
     absolute magnetization    =     1.56 Bohr mag/cell

     iteration #  5     ecut=    30.00 Ry     beta= 0.70
     Davidson diagonalization with overlap
     ethr =  7.06E-06,  avg # of iterations =  2.6

     total cpu time spent up to now is        6.7 secs

     total energy              =     -74.21240598 Ry
     Harris-Foulkes estimate   =     -74.21317618 Ry
     estimated scf accuracy    <       0.00036998 Ry

     total magnetization       =     1.38 Bohr mag/cell
     absolute magnetization    =     1.47 Bohr mag/cell

     iteration #  6     ecut=    30.00 Ry     beta= 0.70
     Davidson diagonalization with overlap
     ethr =  4.11E-06,  avg # of iterations =  1.7

     total cpu time spent up to now is        7.7 secs

     total energy              =     -74.21368484 Ry
     Harris-Foulkes estimate   =     -74.21375726 Ry
     estimated scf accuracy    <       0.00018486 Ry

     total magnetization       =     1.17 Bohr mag/cell
     absolute magnetization    =     1.24 Bohr mag/cell

     iteration #  7     ecut=    30.00 Ry     beta= 0.70
     Davidson diagonalization with overlap
     ethr =  2.05E-06,  avg # of iterations =  1.4

     total cpu time spent up to now is        8.6 secs

     total energy              =     -74.21355180 Ry
     Harris-Foulkes estimate   =     -74.21373610 Ry
     estimated scf accuracy    <       0.00003365 Ry

     total magnetization       =     1.16 Bohr mag/cell
     absolute magnetization    =     1.23 Bohr mag/cell

     iteration #  8     ecut=    30.00 Ry     beta= 0.70
     Davidson diagonalization with overlap
     ethr =  3.74E-07,  avg # of iterations =  2.0

     total cpu time spent up to now is        9.5 secs

     total energy              =     -74.21382197 Ry
     Harris-Foulkes estimate   =     -74.21381883 Ry
     estimated scf accuracy    <       0.00000548 Ry

     total magnetization       =     1.06 Bohr mag/cell
     absolute magnetization    =     1.12 Bohr mag/cell

     iteration #  9     ecut=    30.00 Ry     beta= 0.70
     Davidson diagonalization with overlap
     ethr =  6.09E-08,  avg # of iterations =  1.3

     total cpu time spent up to now is       10.4 secs

     total energy              =     -74.21382713 Ry
     Harris-Foulkes estimate   =     -74.21382858 Ry
     estimated scf accuracy    <       0.00000502 Ry

     total magnetization       =     1.04 Bohr mag/cell
     absolute magnetization    =     1.10 Bohr mag/cell

     iteration # 10     ecut=    30.00 Ry     beta= 0.70
     Davidson diagonalization with overlap
     ethr =  5.58E-08,  avg # of iterations =  1.0

     total cpu time spent up to now is       11.2 secs

     total energy              =     -74.21380322 Ry
     Harris-Foulkes estimate   =     -74.21382736 Ry
     estimated scf accuracy    <       0.00000516 Ry

     total magnetization       =     1.05 Bohr mag/cell
     absolute magnetization    =     1.10 Bohr mag/cell

     iteration # 11     ecut=    30.00 Ry     beta= 0.70
     Davidson diagonalization with overlap
     ethr =  5.58E-08,  avg # of iterations =  2.0

     total cpu time spent up to now is       12.1 secs

     total energy              =     -74.21359763 Ry
     Harris-Foulkes estimate   =     -74.21384437 Ry
     estimated scf accuracy    <       0.00000331 Ry

     total magnetization       =     1.00 Bohr mag/cell
     absolute magnetization    =     1.06 Bohr mag/cell

     iteration # 12     ecut=    30.00 Ry     beta= 0.70
     Davidson diagonalization with overlap
     ethr =  3.68E-08,  avg # of iterations =  3.0

     total cpu time spent up to now is       13.3 secs

     total energy              =     -74.21385803 Ry
     Harris-Foulkes estimate   =     -74.21386346 Ry
     estimated scf accuracy    <       0.00000027 Ry

     total magnetization       =     0.90 Bohr mag/cell
     absolute magnetization    =     0.95 Bohr mag/cell

     iteration # 13     ecut=    30.00 Ry     beta= 0.70
     Davidson diagonalization with overlap
     ethr =  2.97E-09,  avg # of iterations =  2.6

     total cpu time spent up to now is       14.5 secs

     total energy              =     -74.21385015 Ry
     Harris-Foulkes estimate   =     -74.21386435 Ry
     estimated scf accuracy    <       0.00000051 Ry

     total magnetization       =     0.88 Bohr mag/cell
     absolute magnetization    =     0.93 Bohr mag/cell

     iteration # 14     ecut=    30.00 Ry     beta= 0.70
     Davidson diagonalization with overlap
     ethr =  2.97E-09,  avg # of iterations =  2.9

     total cpu time spent up to now is       15.6 secs

     total energy              =     -74.21386347 Ry
     Harris-Foulkes estimate   =     -74.21386461 Ry
     estimated scf accuracy    <       0.00000006 Ry

     total magnetization       =     0.91 Bohr mag/cell
     absolute magnetization    =     0.96 Bohr mag/cell

     iteration # 15     ecut=    30.00 Ry     beta= 0.70
     Davidson diagonalization with overlap
     ethr =  6.49E-10,  avg # of iterations =  2.5

     Magnetic moment per site:
     atom:    1    charge:    7.5361    magn:    0.9214    constr:    0.0000

     total cpu time spent up to now is       16.7 secs

     End of self-consistent calculation

     Number of k-points >= 100: set verbosity='high' to print the bands.

     the Fermi energy is    17.7135 ev

!    total energy              =     -74.21386477 Ry
     Harris-Foulkes estimate   =     -74.21386477 Ry
     estimated scf accuracy    <          8.6E-09 Ry

     The total energy is the sum of the following terms:

     one-electron contribution =       8.88567319 Ry
     hartree contribution      =       9.15277428 Ry
     xc contribution           =     -32.54583481 Ry
     ewald contribution        =     -59.70640322 Ry
     smearing contrib. (-TS)   =      -0.00007421 Ry

     total magnetization       =     0.90 Bohr mag/cell
     absolute magnetization    =     0.95 Bohr mag/cell

     convergence has been achieved in  15 iterations

     Forces acting on atoms (cartesian axes, Ry/au):

     atom    1 type  1   force =     0.00000000    0.00000000    0.00000000

     Total force =     0.000000     Total SCF correction =     0.000000


     Computing stress (Cartesian axis) and pressure

          total   stress  (Ry/bohr**3)                   (kbar)     P=  311.60
   0.00211824  -0.00000000  -0.00000000        311.60     -0.00     -0.00
  -0.00000000   0.00211824   0.00000000         -0.00    311.60      0.00
  -0.00000000   0.00000000   0.00211824         -0.00      0.00    311.60


     Writing output data file Co.FCC.save/

     init_run     :      1.12s CPU      1.18s WALL (       1 calls)
     electrons    :     14.69s CPU     15.27s WALL (       1 calls)
     forces       :      0.23s CPU      0.23s WALL (       1 calls)
     stress       :      0.48s CPU      0.48s WALL (       1 calls)

     Called by init_run:
     wfcinit      :      0.24s CPU      0.26s WALL (       1 calls)
     potinit      :      0.02s CPU      0.02s WALL (       1 calls)
     hinit0       :      0.82s CPU      0.84s WALL (       1 calls)

     Called by electrons:
     c_bands      :     11.12s CPU     11.65s WALL (      15 calls)
     sum_band     :      2.78s CPU      2.82s WALL (      15 calls)
     v_of_rho     :      0.18s CPU      0.18s WALL (      16 calls)
     newd         :      0.60s CPU      0.61s WALL (      16 calls)
     mix_rho      :      0.04s CPU      0.04s WALL (      15 calls)

     Called by c_bands:
     init_us_2    :      0.58s CPU      0.60s WALL (    4752 calls)
     cegterg      :     10.33s CPU     10.82s WALL (    2160 calls)

     Called by sum_band:
     sum_band:bec :      0.07s CPU      0.07s WALL (    2160 calls)
     addusdens    :      1.10s CPU      1.11s WALL (      15 calls)

     Called by *egterg:
     h_psi        :      5.25s CPU      5.51s WALL (    6899 calls)
     s_psi        :      0.78s CPU      0.82s WALL (    6899 calls)
     g_psi        :      0.04s CPU      0.04s WALL (    4595 calls)
     cdiaghg      :      1.91s CPU      1.99s WALL (    6755 calls)

     Called by h_psi:
     h_psi:pot    :      5.21s CPU      5.47s WALL (    6899 calls)
     h_psi:calbec :      0.86s CPU      0.91s WALL (    6899 calls)
     vloc_psi     :      3.54s CPU      3.71s WALL (    6899 calls)
     add_vuspsi   :      0.77s CPU      0.81s WALL (    6899 calls)

     General routines
     calbec       :      1.31s CPU      1.37s WALL (    9779 calls)
     fft          :      0.10s CPU      0.11s WALL (     180 calls)
     ffts         :      0.00s CPU      0.00s WALL (      62 calls)
     fftw         :      2.61s CPU      2.72s WALL (  115530 calls)
     interpolate  :      0.02s CPU      0.02s WALL (      32 calls)

     Parallel routines

     PWSCF        :     16.85s CPU     17.51s WALL


   This run was terminated on:   6:31:15  19Feb2020            

=------------------------------------------------------------------------------=
   JOB DONE.
=------------------------------------------------------------------------------=
