     Message from routine get_command_line:
     unexpected argument # 2     :-input

     Program PWSCF v.6.4.1 starts on 19Feb2020 at  8:51: 5 

     This program is part of the open-source Quantum ESPRESSO suite
     for quantum simulation of materials; please cite
         "P. Giannozzi et al., J. Phys.:Condens. Matter 21 395502 (2009);
         "P. Giannozzi et al., J. Phys.:Condens. Matter 29 465901 (2017);
          URL http://www.quantum-espresso.org", 
     in publications or presentations arising from this work. More details at
     http://www.quantum-espresso.org/quote

     Parallel version (MPI), running on     1 processors

     MPI processes distributed on     1 nodes
     Waiting for input...
     Reading input from standard input
     Message from routine read_cards :
     DEPRECATED: no units specified in ATOMIC_POSITIONS card
     Message from routine read_cards :
     ATOMIC_POSITIONS: units set to alat

     Current dimensions of program PWSCF are:
     Max number of different atomic species (ntypx) = 10
     Max number of k-points (npk) =  40000
     Max angular momentum in pseudopotentials (lmaxx) =  3
               file Co.pz-nd-rrkjus.UPF: wavefunction(s)  4S 3D renormalized

     Subspace diagonalization in iterative solution of the eigenvalue problem:
     a serial algorithm will be used


     G-vector sticks info
     --------------------
     sticks:   dense  smooth     PW     G-vecs:    dense   smooth      PW
     Sum         283     127     55                 3119      965     259



     bravais-lattice index     =            2
     lattice parameter (alat)  =       5.6800  a.u.
     unit-cell volume          =      45.8126 (a.u.)^3
     number of atoms/cell      =            1
     number of atomic types    =            1
     number of electrons       =         9.00
     number of Kohn-Sham states=            9
     kinetic-energy cutoff     =      30.0000  Ry
     charge density cutoff     =     250.0000  Ry
     convergence threshold     =      1.0E-08
     mixing beta               =       0.7000
     number of iterations used =            8  plain     mixing
     Exchange-correlation      =  SLA  PZ   NOGX NOGC ( 1  1  0  0 0 0)

     celldm(1)=   5.680000  celldm(2)=   0.000000  celldm(3)=   0.000000
     celldm(4)=   0.000000  celldm(5)=   0.000000  celldm(6)=   0.000000

     crystal axes: (cart. coord. in units of alat)
               a(1) = (  -0.500000   0.000000   0.500000 )  
               a(2) = (   0.000000   0.500000   0.500000 )  
               a(3) = (  -0.500000   0.500000   0.000000 )  

     reciprocal axes: (cart. coord. in units 2 pi/alat)
               b(1) = ( -1.000000 -1.000000  1.000000 )  
               b(2) = (  1.000000  1.000000  1.000000 )  
               b(3) = ( -1.000000  1.000000 -1.000000 )  


     PseudoPot. # 1 for Co read from file:
     ./Co.pz-nd-rrkjus.UPF
     MD5 check sum: c80159f6ca3a93d3df3cfc6468bb3c3d
     Pseudo is Ultrasoft + core correction, Zval =  9.0
     Generated by new atomic code, or converted to UPF format
     Using radial grid of  961 points,  6 beta functions with: 
                l(1) =   0
                l(2) =   0
                l(3) =   1
                l(4) =   1
                l(5) =   2
                l(6) =   2
     Q(r) pseudized with 0 coefficients 


     atomic species   valence    mass     pseudopotential
        Co             9.00    58.93300     Co( 1.00)

     Starting magnetic structure 
     atomic species   magnetization
        Co           0.700

     48 Sym. Ops., with inversion, found



   Cartesian axes

     site n.     atom                  positions (alat units)
         1           Co  tau(   1) = (   0.0000000   0.0000000   0.0000000  )

     number of k points=    72  Marzari-Vanderbilt smearing, width (Ry)=  0.0300
                       cart. coord. in units 2pi/alat
        k(    1) = (   0.0000000   0.0000000   0.0000000), wk =   0.0005787
        k(    2) = (  -0.0833333   0.0833333  -0.0833333), wk =   0.0046296
        k(    3) = (  -0.1666667   0.1666667  -0.1666667), wk =   0.0046296
        k(    4) = (  -0.2500000   0.2500000  -0.2500000), wk =   0.0046296
        k(    5) = (  -0.3333333   0.3333333  -0.3333333), wk =   0.0046296
        k(    6) = (  -0.4166667   0.4166667  -0.4166667), wk =   0.0046296
        k(    7) = (   0.5000000  -0.5000000   0.5000000), wk =   0.0023148
        k(    8) = (   0.0000000   0.1666667   0.0000000), wk =   0.0034722
        k(    9) = (  -0.0833333   0.2500000  -0.0833333), wk =   0.0138889
        k(   10) = (  -0.1666667   0.3333333  -0.1666667), wk =   0.0138889
        k(   11) = (  -0.2500000   0.4166667  -0.2500000), wk =   0.0138889
        k(   12) = (  -0.3333333   0.5000000  -0.3333333), wk =   0.0138889
        k(   13) = (   0.5833333  -0.4166667   0.5833333), wk =   0.0138889
        k(   14) = (   0.5000000  -0.3333333   0.5000000), wk =   0.0138889
        k(   15) = (   0.4166667  -0.2500000   0.4166667), wk =   0.0138889
        k(   16) = (   0.3333333  -0.1666667   0.3333333), wk =   0.0138889
        k(   17) = (   0.2500000  -0.0833333   0.2500000), wk =   0.0138889
        k(   18) = (   0.1666667  -0.0000000   0.1666667), wk =   0.0069444
        k(   19) = (   0.0000000   0.3333333   0.0000000), wk =   0.0034722
        k(   20) = (  -0.0833333   0.4166667  -0.0833333), wk =   0.0138889
        k(   21) = (  -0.1666667   0.5000000  -0.1666667), wk =   0.0138889
        k(   22) = (  -0.2500000   0.5833333  -0.2500000), wk =   0.0138889
        k(   23) = (   0.6666667  -0.3333333   0.6666667), wk =   0.0138889
        k(   24) = (   0.5833333  -0.2500000   0.5833333), wk =   0.0138889
        k(   25) = (   0.5000000  -0.1666667   0.5000000), wk =   0.0138889
        k(   26) = (   0.4166667  -0.0833333   0.4166667), wk =   0.0138889
        k(   27) = (   0.3333333   0.0000000   0.3333333), wk =   0.0069444
        k(   28) = (   0.0000000   0.5000000   0.0000000), wk =   0.0034722
        k(   29) = (  -0.0833333   0.5833333  -0.0833333), wk =   0.0138889
        k(   30) = (  -0.1666667   0.6666667  -0.1666667), wk =   0.0138889
        k(   31) = (   0.7500000  -0.2500000   0.7500000), wk =   0.0138889
        k(   32) = (   0.6666667  -0.1666667   0.6666667), wk =   0.0138889
        k(   33) = (   0.5833333  -0.0833333   0.5833333), wk =   0.0138889
        k(   34) = (   0.5000000   0.0000000   0.5000000), wk =   0.0069444
        k(   35) = (   0.0000000   0.6666667   0.0000000), wk =   0.0034722
        k(   36) = (  -0.0833333   0.7500000  -0.0833333), wk =   0.0138889
        k(   37) = (   0.8333333  -0.1666667   0.8333333), wk =   0.0138889
        k(   38) = (   0.7500000  -0.0833333   0.7500000), wk =   0.0138889
        k(   39) = (   0.6666667  -0.0000000   0.6666667), wk =   0.0069444
        k(   40) = (   0.0000000   0.8333333   0.0000000), wk =   0.0034722
        k(   41) = (   0.9166667  -0.0833333   0.9166667), wk =   0.0138889
        k(   42) = (   0.8333333   0.0000000   0.8333333), wk =   0.0069444
        k(   43) = (   0.0000000  -1.0000000   0.0000000), wk =   0.0017361
        k(   44) = (  -0.1666667   0.3333333   0.0000000), wk =   0.0138889
        k(   45) = (  -0.2500000   0.4166667  -0.0833333), wk =   0.0277778
        k(   46) = (  -0.3333333   0.5000000  -0.1666667), wk =   0.0277778
        k(   47) = (   0.5833333  -0.4166667   0.7500000), wk =   0.0277778
        k(   48) = (   0.5000000  -0.3333333   0.6666667), wk =   0.0138889
        k(   49) = (  -0.1666667   0.5000000   0.0000000), wk =   0.0138889
        k(   50) = (  -0.2500000   0.5833333  -0.0833333), wk =   0.0277778
        k(   51) = (   0.6666667  -0.3333333   0.8333333), wk =   0.0277778
        k(   52) = (   0.5833333  -0.2500000   0.7500000), wk =   0.0277778
        k(   53) = (   0.5000000  -0.1666667   0.6666667), wk =   0.0277778
        k(   54) = (   0.4166667  -0.0833333   0.5833333), wk =   0.0277778
        k(   55) = (   0.3333333   0.0000000   0.5000000), wk =   0.0138889
        k(   56) = (  -0.1666667   0.6666667  -0.0000000), wk =   0.0138889
        k(   57) = (   0.7500000  -0.2500000   0.9166667), wk =   0.0277778
        k(   58) = (   0.6666667  -0.1666667   0.8333333), wk =   0.0277778
        k(   59) = (   0.5833333  -0.0833333   0.7500000), wk =   0.0277778
        k(   60) = (   0.5000000   0.0000000   0.6666667), wk =   0.0138889
        k(   61) = (   0.8333333  -0.1666667   1.0000000), wk =   0.0138889
        k(   62) = (   0.7500000  -0.0833333   0.9166667), wk =   0.0277778
        k(   63) = (   0.6666667   0.0000000   0.8333333), wk =   0.0138889
        k(   64) = (  -0.1666667  -1.0000000  -0.0000000), wk =   0.0069444
        k(   65) = (   0.6666667  -0.3333333   1.0000000), wk =   0.0138889
        k(   66) = (   0.5833333  -0.2500000   0.9166667), wk =   0.0277778
        k(   67) = (   0.5000000  -0.1666667   0.8333333), wk =   0.0138889
        k(   68) = (   0.6666667  -0.1666667   1.0000000), wk =   0.0138889
        k(   69) = (   0.5833333  -0.0833333   0.9166667), wk =   0.0277778
        k(   70) = (   0.5000000   0.0000000   0.8333333), wk =   0.0138889
        k(   71) = (  -0.3333333  -1.0000000   0.0000000), wk =   0.0069444
        k(   72) = (  -0.5000000  -1.0000000   0.0000000), wk =   0.0034722

     Dense  grid:     3119 G-vectors     FFT dimensions: (  24,  24,  24)

     Smooth grid:      965 G-vectors     FFT dimensions: (  15,  15,  15)

     Estimated max dynamical RAM per process >      17.06 MB
     Generating pointlists ...
     new r_m :   0.2917 (alat units)  1.6568 (a.u.) for type    1

     Check: negative core charge=   -0.000003

     Initial potential from superposition of free atoms

     starting charge    8.99962, renormalised to    9.00000
     Starting wfcs are    6 randomized atomic wfcs +    3 random wfcs

     total cpu time spent up to now is        1.3 secs

     Self-consistent Calculation

     iteration #  1     ecut=    30.00 Ry     beta= 0.70
     Davidson diagonalization with overlap
     ethr =  1.00E-02,  avg # of iterations =  4.3

     total cpu time spent up to now is        2.7 secs

     total energy              =     -73.94224229 Ry
     Harris-Foulkes estimate   =     -73.83180180 Ry
     estimated scf accuracy    <       0.49046972 Ry

     total magnetization       =     1.95 Bohr mag/cell
     absolute magnetization    =     1.96 Bohr mag/cell

     iteration #  2     ecut=    30.00 Ry     beta= 0.70
     Davidson diagonalization with overlap
     ethr =  5.45E-03,  avg # of iterations =  1.6

     total cpu time spent up to now is        3.4 secs

     total energy              =     -74.03510573 Ry
     Harris-Foulkes estimate   =     -74.08471421 Ry
     estimated scf accuracy    <       0.17728340 Ry

     total magnetization       =     1.49 Bohr mag/cell
     absolute magnetization    =     1.53 Bohr mag/cell

     iteration #  3     ecut=    30.00 Ry     beta= 0.70
     Davidson diagonalization with overlap
     ethr =  1.97E-03,  avg # of iterations =  1.5

     total cpu time spent up to now is        4.2 secs

     total energy              =     -74.08675509 Ry
     Harris-Foulkes estimate   =     -74.07952114 Ry
     estimated scf accuracy    <       0.03202989 Ry

     total magnetization       =     1.35 Bohr mag/cell
     absolute magnetization    =     1.40 Bohr mag/cell

     iteration #  4     ecut=    30.00 Ry     beta= 0.70
     Davidson diagonalization with overlap
     ethr =  3.56E-04,  avg # of iterations =  1.0

     total cpu time spent up to now is        4.9 secs

     total energy              =     -74.08214363 Ry
     Harris-Foulkes estimate   =     -74.09901825 Ry
     estimated scf accuracy    <       0.00578378 Ry

     total magnetization       =     0.82 Bohr mag/cell
     absolute magnetization    =     0.89 Bohr mag/cell

     iteration #  5     ecut=    30.00 Ry     beta= 0.70
     Davidson diagonalization with overlap
     ethr =  6.43E-05,  avg # of iterations =  1.3

     total cpu time spent up to now is        5.7 secs

     total energy              =     -74.09076492 Ry
     Harris-Foulkes estimate   =     -74.08713576 Ry
     estimated scf accuracy    <       0.01572725 Ry

     total magnetization       =     1.19 Bohr mag/cell
     absolute magnetization    =     1.27 Bohr mag/cell

     iteration #  6     ecut=    30.00 Ry     beta= 0.70
     Davidson diagonalization with overlap
     ethr =  6.43E-05,  avg # of iterations =  1.5

     total cpu time spent up to now is        6.4 secs

     total energy              =     -74.10388971 Ry
     Harris-Foulkes estimate   =     -74.10327487 Ry
     estimated scf accuracy    <       0.00240840 Ry

     total magnetization       =     0.60 Bohr mag/cell
     absolute magnetization    =     0.64 Bohr mag/cell

     iteration #  7     ecut=    30.00 Ry     beta= 0.70
     Davidson diagonalization with overlap
     ethr =  2.68E-05,  avg # of iterations =  1.1

     total cpu time spent up to now is        7.2 secs

     total energy              =     -74.10324380 Ry
     Harris-Foulkes estimate   =     -74.10397863 Ry
     estimated scf accuracy    <       0.00213565 Ry

     total magnetization       =     0.55 Bohr mag/cell
     absolute magnetization    =     0.59 Bohr mag/cell

     iteration #  8     ecut=    30.00 Ry     beta= 0.70
     Davidson diagonalization with overlap
     ethr =  2.37E-05,  avg # of iterations =  1.4

     total cpu time spent up to now is        7.9 secs

     total energy              =     -74.10774088 Ry
     Harris-Foulkes estimate   =     -74.10755664 Ry
     estimated scf accuracy    <       0.00040075 Ry

     total magnetization       =     0.19 Bohr mag/cell
     absolute magnetization    =     0.20 Bohr mag/cell

     iteration #  9     ecut=    30.00 Ry     beta= 0.70
     Davidson diagonalization with overlap
     ethr =  4.45E-06,  avg # of iterations =  1.8

     total cpu time spent up to now is        8.7 secs

     total energy              =     -74.10787099 Ry
     Harris-Foulkes estimate   =     -74.10805494 Ry
     estimated scf accuracy    <       0.00012932 Ry

     total magnetization       =     0.09 Bohr mag/cell
     absolute magnetization    =     0.10 Bohr mag/cell

     iteration # 10     ecut=    30.00 Ry     beta= 0.70
     Davidson diagonalization with overlap
     ethr =  1.44E-06,  avg # of iterations =  1.7

     total cpu time spent up to now is        9.5 secs

     total energy              =     -74.10821161 Ry
     Harris-Foulkes estimate   =     -74.10824762 Ry
     estimated scf accuracy    <       0.00004008 Ry

     total magnetization       =    -0.00 Bohr mag/cell
     absolute magnetization    =     0.00 Bohr mag/cell

     iteration # 11     ecut=    30.00 Ry     beta= 0.70
     Davidson diagonalization with overlap
     ethr =  4.45E-07,  avg # of iterations =  1.4

     total cpu time spent up to now is       10.3 secs

     total energy              =     -74.10819136 Ry
     Harris-Foulkes estimate   =     -74.10823710 Ry
     estimated scf accuracy    <       0.00004166 Ry

     total magnetization       =    -0.02 Bohr mag/cell
     absolute magnetization    =     0.02 Bohr mag/cell

     iteration # 12     ecut=    30.00 Ry     beta= 0.70
     Davidson diagonalization with overlap
     ethr =  4.45E-07,  avg # of iterations =  1.4

     total cpu time spent up to now is       11.0 secs

     total energy              =     -74.10823153 Ry
     Harris-Foulkes estimate   =     -74.10823684 Ry
     estimated scf accuracy    <       0.00000359 Ry

     total magnetization       =     0.01 Bohr mag/cell
     absolute magnetization    =     0.01 Bohr mag/cell

     iteration # 13     ecut=    30.00 Ry     beta= 0.70
     Davidson diagonalization with overlap
     ethr =  3.99E-08,  avg # of iterations =  1.5

     total cpu time spent up to now is       11.8 secs

     total energy              =     -74.10823802 Ry
     Harris-Foulkes estimate   =     -74.10823822 Ry
     estimated scf accuracy    <       0.00000018 Ry

     total magnetization       =    -0.00 Bohr mag/cell
     absolute magnetization    =     0.00 Bohr mag/cell

     iteration # 14     ecut=    30.00 Ry     beta= 0.70
     Davidson diagonalization with overlap
     ethr =  2.05E-09,  avg # of iterations =  1.7

     Magnetic moment per site:
     atom:    1    charge:    7.3585    magn:    0.0002    constr:    0.0000

     total cpu time spent up to now is       12.6 secs

     End of self-consistent calculation

     Number of k-points >= 100: set verbosity='high' to print the bands.

     the Fermi energy is    24.7587 ev

!    total energy              =     -74.10823840 Ry
     Harris-Foulkes estimate   =     -74.10823840 Ry
     estimated scf accuracy    <          1.0E-09 Ry

     The total energy is the sum of the following terms:

     one-electron contribution =      16.87849268 Ry
     hartree contribution      =       7.29341203 Ry
     xc contribution           =     -32.89760689 Ry
     ewald contribution        =     -65.38271620 Ry
     smearing contrib. (-TS)   =       0.00017998 Ry

     total magnetization       =     0.00 Bohr mag/cell
     absolute magnetization    =     0.00 Bohr mag/cell

     convergence has been achieved in  14 iterations

     Forces acting on atoms (cartesian axes, Ry/au):

     atom    1 type  1   force =     0.00000000    0.00000000    0.00000000

     Total force =     0.000000     Total SCF correction =     0.000000


     Computing stress (Cartesian axis) and pressure

          total   stress  (Ry/bohr**3)                   (kbar)     P= 2333.26
   0.01586119   0.00000000   0.00000000       2333.26      0.00      0.00
   0.00000000   0.01586119  -0.00000000          0.00   2333.26     -0.00
   0.00000000  -0.00000000   0.01586119          0.00     -0.00   2333.26


     Writing output data file Co.FCC.save/

     init_run     :      1.06s CPU      1.07s WALL (       1 calls)
     electrons    :     10.82s CPU     11.25s WALL (       1 calls)
     forces       :      0.17s CPU      0.17s WALL (       1 calls)
     stress       :      0.40s CPU      0.40s WALL (       1 calls)

     Called by init_run:
     wfcinit      :      0.22s CPU      0.22s WALL (       1 calls)
     potinit      :      0.02s CPU      0.02s WALL (       1 calls)
     hinit0       :      0.78s CPU      0.78s WALL (       1 calls)

     Called by electrons:
     c_bands      :      8.00s CPU      8.35s WALL (      14 calls)
     sum_band     :      2.19s CPU      2.26s WALL (      14 calls)
     v_of_rho     :      0.17s CPU      0.17s WALL (      15 calls)
     newd         :      0.45s CPU      0.45s WALL (      15 calls)
     mix_rho      :      0.04s CPU      0.04s WALL (      14 calls)

     Called by c_bands:
     init_us_2    :      0.43s CPU      0.44s WALL (    4464 calls)
     cegterg      :      7.41s CPU      7.74s WALL (    2016 calls)

     Called by sum_band:
     sum_band:bec :      0.07s CPU      0.07s WALL (    2016 calls)
     addusdens    :      0.81s CPU      0.81s WALL (      14 calls)

     Called by *egterg:
     h_psi        :      4.09s CPU      4.27s WALL (    5530 calls)
     s_psi        :      0.51s CPU      0.54s WALL (    5530 calls)
     g_psi        :      0.03s CPU      0.03s WALL (    3370 calls)
     cdiaghg      :      1.36s CPU      1.42s WALL (    5386 calls)

     Called by h_psi:
     h_psi:pot    :      4.06s CPU      4.24s WALL (    5530 calls)
     h_psi:calbec :      0.57s CPU      0.60s WALL (    5530 calls)
     vloc_psi     :      2.93s CPU      3.07s WALL (    5530 calls)
     add_vuspsi   :      0.52s CPU      0.55s WALL (    5530 calls)

     General routines
     calbec       :      0.88s CPU      0.92s WALL (    8266 calls)
     fft          :      0.10s CPU      0.10s WALL (     169 calls)
     ffts         :      0.00s CPU      0.00s WALL (      58 calls)
     fftw         :      2.18s CPU      2.29s WALL (   99682 calls)
     interpolate  :      0.02s CPU      0.02s WALL (      30 calls)

     Parallel routines

     PWSCF        :     12.81s CPU     13.29s WALL


   This run was terminated on:   8:51:19  19Feb2020            

=------------------------------------------------------------------------------=
   JOB DONE.
=------------------------------------------------------------------------------=
