     Message from routine get_command_line:
     unexpected argument # 2     :-input

     Program PWSCF v.6.4.1 starts on 19Feb2020 at  6:43:40 

     This program is part of the open-source Quantum ESPRESSO suite
     for quantum simulation of materials; please cite
         "P. Giannozzi et al., J. Phys.:Condens. Matter 21 395502 (2009);
         "P. Giannozzi et al., J. Phys.:Condens. Matter 29 465901 (2017);
          URL http://www.quantum-espresso.org", 
     in publications or presentations arising from this work. More details at
     http://www.quantum-espresso.org/quote

     Parallel version (MPI), running on     1 processors

     MPI processes distributed on     1 nodes
     Waiting for input...
     Reading input from standard input
     Message from routine read_cards :
     DEPRECATED: no units specified in ATOMIC_POSITIONS card
     Message from routine read_cards :
     ATOMIC_POSITIONS: units set to alat

     Current dimensions of program PWSCF are:
     Max number of different atomic species (ntypx) = 10
     Max number of k-points (npk) =  40000
     Max angular momentum in pseudopotentials (lmaxx) =  3
               file Co.pz-nd-rrkjus.UPF: wavefunction(s)  4S 3D renormalized

     Subspace diagonalization in iterative solution of the eigenvalue problem:
     a serial algorithm will be used


     G-vector sticks info
     --------------------
     sticks:   dense  smooth     PW     G-vecs:    dense   smooth      PW
     Sum         421     199     73                 5577     1837     411



     bravais-lattice index     =            2
     lattice parameter (alat)  =       6.9200  a.u.
     unit-cell volume          =      82.8435 (a.u.)^3
     number of atoms/cell      =            1
     number of atomic types    =            1
     number of electrons       =         9.00
     number of Kohn-Sham states=            9
     kinetic-energy cutoff     =      30.0000  Ry
     charge density cutoff     =     250.0000  Ry
     convergence threshold     =      1.0E-08
     mixing beta               =       0.7000
     number of iterations used =            8  plain     mixing
     Exchange-correlation      =  SLA  PZ   NOGX NOGC ( 1  1  0  0 0 0)

     celldm(1)=   6.920000  celldm(2)=   0.000000  celldm(3)=   0.000000
     celldm(4)=   0.000000  celldm(5)=   0.000000  celldm(6)=   0.000000

     crystal axes: (cart. coord. in units of alat)
               a(1) = (  -0.500000   0.000000   0.500000 )  
               a(2) = (   0.000000   0.500000   0.500000 )  
               a(3) = (  -0.500000   0.500000   0.000000 )  

     reciprocal axes: (cart. coord. in units 2 pi/alat)
               b(1) = ( -1.000000 -1.000000  1.000000 )  
               b(2) = (  1.000000  1.000000  1.000000 )  
               b(3) = ( -1.000000  1.000000 -1.000000 )  


     PseudoPot. # 1 for Co read from file:
     ./Co.pz-nd-rrkjus.UPF
     MD5 check sum: c80159f6ca3a93d3df3cfc6468bb3c3d
     Pseudo is Ultrasoft + core correction, Zval =  9.0
     Generated by new atomic code, or converted to UPF format
     Using radial grid of  961 points,  6 beta functions with: 
                l(1) =   0
                l(2) =   0
                l(3) =   1
                l(4) =   1
                l(5) =   2
                l(6) =   2
     Q(r) pseudized with 0 coefficients 


     atomic species   valence    mass     pseudopotential
        Co             9.00    58.93300     Co( 1.00)

     Starting magnetic structure 
     atomic species   magnetization
        Co           0.700

     48 Sym. Ops., with inversion, found



   Cartesian axes

     site n.     atom                  positions (alat units)
         1           Co  tau(   1) = (   0.0000000   0.0000000   0.0000000  )

     number of k points=    72  Marzari-Vanderbilt smearing, width (Ry)=  0.0300
                       cart. coord. in units 2pi/alat
        k(    1) = (   0.0000000   0.0000000   0.0000000), wk =   0.0005787
        k(    2) = (  -0.0833333   0.0833333  -0.0833333), wk =   0.0046296
        k(    3) = (  -0.1666667   0.1666667  -0.1666667), wk =   0.0046296
        k(    4) = (  -0.2500000   0.2500000  -0.2500000), wk =   0.0046296
        k(    5) = (  -0.3333333   0.3333333  -0.3333333), wk =   0.0046296
        k(    6) = (  -0.4166667   0.4166667  -0.4166667), wk =   0.0046296
        k(    7) = (   0.5000000  -0.5000000   0.5000000), wk =   0.0023148
        k(    8) = (   0.0000000   0.1666667   0.0000000), wk =   0.0034722
        k(    9) = (  -0.0833333   0.2500000  -0.0833333), wk =   0.0138889
        k(   10) = (  -0.1666667   0.3333333  -0.1666667), wk =   0.0138889
        k(   11) = (  -0.2500000   0.4166667  -0.2500000), wk =   0.0138889
        k(   12) = (  -0.3333333   0.5000000  -0.3333333), wk =   0.0138889
        k(   13) = (   0.5833333  -0.4166667   0.5833333), wk =   0.0138889
        k(   14) = (   0.5000000  -0.3333333   0.5000000), wk =   0.0138889
        k(   15) = (   0.4166667  -0.2500000   0.4166667), wk =   0.0138889
        k(   16) = (   0.3333333  -0.1666667   0.3333333), wk =   0.0138889
        k(   17) = (   0.2500000  -0.0833333   0.2500000), wk =   0.0138889
        k(   18) = (   0.1666667  -0.0000000   0.1666667), wk =   0.0069444
        k(   19) = (   0.0000000   0.3333333   0.0000000), wk =   0.0034722
        k(   20) = (  -0.0833333   0.4166667  -0.0833333), wk =   0.0138889
        k(   21) = (  -0.1666667   0.5000000  -0.1666667), wk =   0.0138889
        k(   22) = (  -0.2500000   0.5833333  -0.2500000), wk =   0.0138889
        k(   23) = (   0.6666667  -0.3333333   0.6666667), wk =   0.0138889
        k(   24) = (   0.5833333  -0.2500000   0.5833333), wk =   0.0138889
        k(   25) = (   0.5000000  -0.1666667   0.5000000), wk =   0.0138889
        k(   26) = (   0.4166667  -0.0833333   0.4166667), wk =   0.0138889
        k(   27) = (   0.3333333   0.0000000   0.3333333), wk =   0.0069444
        k(   28) = (   0.0000000   0.5000000   0.0000000), wk =   0.0034722
        k(   29) = (  -0.0833333   0.5833333  -0.0833333), wk =   0.0138889
        k(   30) = (  -0.1666667   0.6666667  -0.1666667), wk =   0.0138889
        k(   31) = (   0.7500000  -0.2500000   0.7500000), wk =   0.0138889
        k(   32) = (   0.6666667  -0.1666667   0.6666667), wk =   0.0138889
        k(   33) = (   0.5833333  -0.0833333   0.5833333), wk =   0.0138889
        k(   34) = (   0.5000000   0.0000000   0.5000000), wk =   0.0069444
        k(   35) = (   0.0000000   0.6666667   0.0000000), wk =   0.0034722
        k(   36) = (  -0.0833333   0.7500000  -0.0833333), wk =   0.0138889
        k(   37) = (   0.8333333  -0.1666667   0.8333333), wk =   0.0138889
        k(   38) = (   0.7500000  -0.0833333   0.7500000), wk =   0.0138889
        k(   39) = (   0.6666667  -0.0000000   0.6666667), wk =   0.0069444
        k(   40) = (   0.0000000   0.8333333   0.0000000), wk =   0.0034722
        k(   41) = (   0.9166667  -0.0833333   0.9166667), wk =   0.0138889
        k(   42) = (   0.8333333   0.0000000   0.8333333), wk =   0.0069444
        k(   43) = (   0.0000000  -1.0000000   0.0000000), wk =   0.0017361
        k(   44) = (  -0.1666667   0.3333333   0.0000000), wk =   0.0138889
        k(   45) = (  -0.2500000   0.4166667  -0.0833333), wk =   0.0277778
        k(   46) = (  -0.3333333   0.5000000  -0.1666667), wk =   0.0277778
        k(   47) = (   0.5833333  -0.4166667   0.7500000), wk =   0.0277778
        k(   48) = (   0.5000000  -0.3333333   0.6666667), wk =   0.0138889
        k(   49) = (  -0.1666667   0.5000000   0.0000000), wk =   0.0138889
        k(   50) = (  -0.2500000   0.5833333  -0.0833333), wk =   0.0277778
        k(   51) = (   0.6666667  -0.3333333   0.8333333), wk =   0.0277778
        k(   52) = (   0.5833333  -0.2500000   0.7500000), wk =   0.0277778
        k(   53) = (   0.5000000  -0.1666667   0.6666667), wk =   0.0277778
        k(   54) = (   0.4166667  -0.0833333   0.5833333), wk =   0.0277778
        k(   55) = (   0.3333333   0.0000000   0.5000000), wk =   0.0138889
        k(   56) = (  -0.1666667   0.6666667  -0.0000000), wk =   0.0138889
        k(   57) = (   0.7500000  -0.2500000   0.9166667), wk =   0.0277778
        k(   58) = (   0.6666667  -0.1666667   0.8333333), wk =   0.0277778
        k(   59) = (   0.5833333  -0.0833333   0.7500000), wk =   0.0277778
        k(   60) = (   0.5000000   0.0000000   0.6666667), wk =   0.0138889
        k(   61) = (   0.8333333  -0.1666667   1.0000000), wk =   0.0138889
        k(   62) = (   0.7500000  -0.0833333   0.9166667), wk =   0.0277778
        k(   63) = (   0.6666667   0.0000000   0.8333333), wk =   0.0138889
        k(   64) = (  -0.1666667  -1.0000000  -0.0000000), wk =   0.0069444
        k(   65) = (   0.6666667  -0.3333333   1.0000000), wk =   0.0138889
        k(   66) = (   0.5833333  -0.2500000   0.9166667), wk =   0.0277778
        k(   67) = (   0.5000000  -0.1666667   0.8333333), wk =   0.0138889
        k(   68) = (   0.6666667  -0.1666667   1.0000000), wk =   0.0138889
        k(   69) = (   0.5833333  -0.0833333   0.9166667), wk =   0.0277778
        k(   70) = (   0.5000000   0.0000000   0.8333333), wk =   0.0138889
        k(   71) = (  -0.3333333  -1.0000000   0.0000000), wk =   0.0069444
        k(   72) = (  -0.5000000  -1.0000000   0.0000000), wk =   0.0034722

     Dense  grid:     5577 G-vectors     FFT dimensions: (  25,  25,  25)

     Smooth grid:     1837 G-vectors     FFT dimensions: (  18,  18,  18)

     Estimated max dynamical RAM per process >      28.93 MB
     Generating pointlists ...
     new r_m :   0.2917 (alat units)  2.0184 (a.u.) for type    1

     Check: negative core charge=   -0.000044

     Initial potential from superposition of free atoms

     starting charge    8.99962, renormalised to    9.00000
     Starting wfcs are    6 randomized atomic wfcs +    3 random wfcs

     total cpu time spent up to now is        2.2 secs

     Self-consistent Calculation

     iteration #  1     ecut=    30.00 Ry     beta= 0.70
     Davidson diagonalization with overlap
     ethr =  1.00E-02,  avg # of iterations =  4.4

     total cpu time spent up to now is        6.0 secs

     total energy              =     -73.88217341 Ry
     Harris-Foulkes estimate   =     -74.09174913 Ry
     estimated scf accuracy    <       0.63966864 Ry

     total magnetization       =     2.71 Bohr mag/cell
     absolute magnetization    =     2.71 Bohr mag/cell

     iteration #  2     ecut=    30.00 Ry     beta= 0.70
     Davidson diagonalization with overlap
     ethr =  7.11E-03,  avg # of iterations =  2.0

     total cpu time spent up to now is        8.9 secs

     total energy              =     -73.99406425 Ry
     Harris-Foulkes estimate   =     -74.41982604 Ry
     estimated scf accuracy    <       1.11778108 Ry

     total magnetization       =     1.61 Bohr mag/cell
     absolute magnetization    =     1.67 Bohr mag/cell

     iteration #  3     ecut=    30.00 Ry     beta= 0.70
     Davidson diagonalization with overlap
     ethr =  7.11E-03,  avg # of iterations =  1.4

     total cpu time spent up to now is       11.4 secs

     total energy              =     -74.19603713 Ry
     Harris-Foulkes estimate   =     -74.17926880 Ry
     estimated scf accuracy    <       0.01850135 Ry

     total magnetization       =     1.96 Bohr mag/cell
     absolute magnetization    =     2.06 Bohr mag/cell

     iteration #  4     ecut=    30.00 Ry     beta= 0.70
     Davidson diagonalization with overlap
     ethr =  2.06E-04,  avg # of iterations =  2.0

     total cpu time spent up to now is       14.1 secs

     total energy              =     -74.20300453 Ry
     Harris-Foulkes estimate   =     -74.20294285 Ry
     estimated scf accuracy    <       0.00019820 Ry

     total magnetization       =     1.75 Bohr mag/cell
     absolute magnetization    =     1.90 Bohr mag/cell

     iteration #  5     ecut=    30.00 Ry     beta= 0.70
     Davidson diagonalization with overlap
     ethr =  2.20E-06,  avg # of iterations =  3.3

     total cpu time spent up to now is       17.4 secs

     total energy              =     -74.20313170 Ry
     Harris-Foulkes estimate   =     -74.20311363 Ry
     estimated scf accuracy    <       0.00001691 Ry

     total magnetization       =     1.75 Bohr mag/cell
     absolute magnetization    =     1.89 Bohr mag/cell

     iteration #  6     ecut=    30.00 Ry     beta= 0.70
     Davidson diagonalization with overlap
     ethr =  1.88E-07,  avg # of iterations =  1.8

     total cpu time spent up to now is       20.2 secs

     total energy              =     -74.20313799 Ry
     Harris-Foulkes estimate   =     -74.20313898 Ry
     estimated scf accuracy    <       0.00000321 Ry

     total magnetization       =     1.75 Bohr mag/cell
     absolute magnetization    =     1.89 Bohr mag/cell

     iteration #  7     ecut=    30.00 Ry     beta= 0.70
     Davidson diagonalization with overlap
     ethr =  3.56E-08,  avg # of iterations =  1.5

     total cpu time spent up to now is       22.6 secs

     total energy              =     -74.20313873 Ry
     Harris-Foulkes estimate   =     -74.20313869 Ry
     estimated scf accuracy    <       0.00000005 Ry

     total magnetization       =     1.75 Bohr mag/cell
     absolute magnetization    =     1.89 Bohr mag/cell

     iteration #  8     ecut=    30.00 Ry     beta= 0.70
     Davidson diagonalization with overlap
     ethr =  5.83E-10,  avg # of iterations =  2.3

     Magnetic moment per site:
     atom:    1    charge:    7.7396    magn:    1.8099    constr:    0.0000

     total cpu time spent up to now is       25.5 secs

     End of self-consistent calculation

     Number of k-points >= 100: set verbosity='high' to print the bands.

     the Fermi energy is    11.8015 ev

!    total energy              =     -74.20313877 Ry
     Harris-Foulkes estimate   =     -74.20313877 Ry
     estimated scf accuracy    <          2.8E-09 Ry

     The total energy is the sum of the following terms:

     one-electron contribution =       0.15150464 Ry
     hartree contribution      =      11.64386412 Ry
     xc contribution           =     -32.33329062 Ry
     ewald contribution        =     -53.66673815 Ry
     smearing contrib. (-TS)   =       0.00152124 Ry

     total magnetization       =     1.75 Bohr mag/cell
     absolute magnetization    =     1.89 Bohr mag/cell

     convergence has been achieved in   8 iterations

     Forces acting on atoms (cartesian axes, Ry/au):

     atom    1 type  1   force =     0.00000000    0.00000000    0.00000000

     Total force =     0.000000     Total SCF correction =     0.000000


     Computing stress (Cartesian axis) and pressure

          total   stress  (Ry/bohr**3)                   (kbar)     P= -326.50
  -0.00221950  -0.00000000  -0.00000000       -326.50     -0.00     -0.00
  -0.00000000  -0.00221950   0.00000000         -0.00   -326.50      0.00
  -0.00000000   0.00000000  -0.00221950         -0.00      0.00   -326.50


     Writing output data file Co.FCC.save/

     init_run     :      1.84s CPU      1.88s WALL (       1 calls)
     electrons    :     23.00s CPU     23.35s WALL (       1 calls)
     forces       :      0.31s CPU      0.31s WALL (       1 calls)
     stress       :      0.66s CPU      0.66s WALL (       1 calls)

     Called by init_run:
     wfcinit      :      0.86s CPU      0.88s WALL (       1 calls)
     potinit      :      0.04s CPU      0.04s WALL (       1 calls)
     hinit0       :      0.88s CPU      0.88s WALL (       1 calls)

     Called by electrons:
     c_bands      :     17.97s CPU     18.28s WALL (       8 calls)
     sum_band     :      4.48s CPU      4.53s WALL (       8 calls)
     v_of_rho     :      0.11s CPU      0.11s WALL (       9 calls)
     newd         :      0.46s CPU      0.47s WALL (       9 calls)
     mix_rho      :      0.01s CPU      0.01s WALL (       8 calls)

     Called by c_bands:
     init_us_2    :      0.46s CPU      0.47s WALL (    2736 calls)
     cegterg      :     17.40s CPU     17.69s WALL (    1152 calls)

     Called by sum_band:
     sum_band:bec :      0.04s CPU      0.04s WALL (    1152 calls)
     addusdens    :      0.82s CPU      0.82s WALL (       8 calls)

     Called by *egterg:
     h_psi        :     14.38s CPU     14.62s WALL (    3977 calls)
     s_psi        :      0.60s CPU      0.61s WALL (    3977 calls)
     g_psi        :      0.03s CPU      0.03s WALL (    2681 calls)
     cdiaghg      :      1.19s CPU      1.22s WALL (    3833 calls)

     Called by h_psi:
     h_psi:pot    :     14.35s CPU     14.59s WALL (    3977 calls)
     h_psi:calbec :      0.70s CPU      0.71s WALL (    3977 calls)
     vloc_psi     :     13.04s CPU     13.25s WALL (    3977 calls)
     add_vuspsi   :      0.59s CPU      0.60s WALL (    3977 calls)

     General routines
     calbec       :      1.10s CPU      1.11s WALL (    5849 calls)
     fft          :      0.02s CPU      0.02s WALL (     103 calls)
     ffts         :      0.03s CPU      0.03s WALL (      34 calls)
     fftw         :     14.37s CPU     14.62s WALL (   64170 calls)
     interpolate  :      0.03s CPU      0.03s WALL (      18 calls)

     Parallel routines

     PWSCF        :     26.16s CPU     26.58s WALL


   This run was terminated on:   6:44: 6  19Feb2020            

=------------------------------------------------------------------------------=
   JOB DONE.
=------------------------------------------------------------------------------=
