     Message from routine get_command_line:
     unexpected argument # 2     :-input

     Program PWSCF v.6.4.1 starts on 19Feb2020 at  8:50:49 

     This program is part of the open-source Quantum ESPRESSO suite
     for quantum simulation of materials; please cite
         "P. Giannozzi et al., J. Phys.:Condens. Matter 21 395502 (2009);
         "P. Giannozzi et al., J. Phys.:Condens. Matter 29 465901 (2017);
          URL http://www.quantum-espresso.org", 
     in publications or presentations arising from this work. More details at
     http://www.quantum-espresso.org/quote

     Parallel version (MPI), running on     1 processors

     MPI processes distributed on     1 nodes
     Waiting for input...
     Reading input from standard input
     Message from routine read_cards :
     DEPRECATED: no units specified in ATOMIC_POSITIONS card
     Message from routine read_cards :
     ATOMIC_POSITIONS: units set to alat

     Current dimensions of program PWSCF are:
     Max number of different atomic species (ntypx) = 10
     Max number of k-points (npk) =  40000
     Max angular momentum in pseudopotentials (lmaxx) =  3
               file Co.pz-nd-rrkjus.UPF: wavefunction(s)  4S 3D renormalized

     Subspace diagonalization in iterative solution of the eigenvalue problem:
     a serial algorithm will be used


     G-vector sticks info
     --------------------
     sticks:   dense  smooth     PW     G-vecs:    dense   smooth      PW
     Sum         271     127     55                 2975      965     259



     bravais-lattice index     =            2
     lattice parameter (alat)  =       5.6600  a.u.
     unit-cell volume          =      45.3304 (a.u.)^3
     number of atoms/cell      =            1
     number of atomic types    =            1
     number of electrons       =         9.00
     number of Kohn-Sham states=            9
     kinetic-energy cutoff     =      30.0000  Ry
     charge density cutoff     =     250.0000  Ry
     convergence threshold     =      1.0E-08
     mixing beta               =       0.7000
     number of iterations used =            8  plain     mixing
     Exchange-correlation      =  SLA  PZ   NOGX NOGC ( 1  1  0  0 0 0)

     celldm(1)=   5.660000  celldm(2)=   0.000000  celldm(3)=   0.000000
     celldm(4)=   0.000000  celldm(5)=   0.000000  celldm(6)=   0.000000

     crystal axes: (cart. coord. in units of alat)
               a(1) = (  -0.500000   0.000000   0.500000 )  
               a(2) = (   0.000000   0.500000   0.500000 )  
               a(3) = (  -0.500000   0.500000   0.000000 )  

     reciprocal axes: (cart. coord. in units 2 pi/alat)
               b(1) = ( -1.000000 -1.000000  1.000000 )  
               b(2) = (  1.000000  1.000000  1.000000 )  
               b(3) = ( -1.000000  1.000000 -1.000000 )  


     PseudoPot. # 1 for Co read from file:
     ./Co.pz-nd-rrkjus.UPF
     MD5 check sum: c80159f6ca3a93d3df3cfc6468bb3c3d
     Pseudo is Ultrasoft + core correction, Zval =  9.0
     Generated by new atomic code, or converted to UPF format
     Using radial grid of  961 points,  6 beta functions with: 
                l(1) =   0
                l(2) =   0
                l(3) =   1
                l(4) =   1
                l(5) =   2
                l(6) =   2
     Q(r) pseudized with 0 coefficients 


     atomic species   valence    mass     pseudopotential
        Co             9.00    58.93300     Co( 1.00)

     Starting magnetic structure 
     atomic species   magnetization
        Co           0.700

     48 Sym. Ops., with inversion, found



   Cartesian axes

     site n.     atom                  positions (alat units)
         1           Co  tau(   1) = (   0.0000000   0.0000000   0.0000000  )

     number of k points=    72  Marzari-Vanderbilt smearing, width (Ry)=  0.0300
                       cart. coord. in units 2pi/alat
        k(    1) = (   0.0000000   0.0000000   0.0000000), wk =   0.0005787
        k(    2) = (  -0.0833333   0.0833333  -0.0833333), wk =   0.0046296
        k(    3) = (  -0.1666667   0.1666667  -0.1666667), wk =   0.0046296
        k(    4) = (  -0.2500000   0.2500000  -0.2500000), wk =   0.0046296
        k(    5) = (  -0.3333333   0.3333333  -0.3333333), wk =   0.0046296
        k(    6) = (  -0.4166667   0.4166667  -0.4166667), wk =   0.0046296
        k(    7) = (   0.5000000  -0.5000000   0.5000000), wk =   0.0023148
        k(    8) = (   0.0000000   0.1666667   0.0000000), wk =   0.0034722
        k(    9) = (  -0.0833333   0.2500000  -0.0833333), wk =   0.0138889
        k(   10) = (  -0.1666667   0.3333333  -0.1666667), wk =   0.0138889
        k(   11) = (  -0.2500000   0.4166667  -0.2500000), wk =   0.0138889
        k(   12) = (  -0.3333333   0.5000000  -0.3333333), wk =   0.0138889
        k(   13) = (   0.5833333  -0.4166667   0.5833333), wk =   0.0138889
        k(   14) = (   0.5000000  -0.3333333   0.5000000), wk =   0.0138889
        k(   15) = (   0.4166667  -0.2500000   0.4166667), wk =   0.0138889
        k(   16) = (   0.3333333  -0.1666667   0.3333333), wk =   0.0138889
        k(   17) = (   0.2500000  -0.0833333   0.2500000), wk =   0.0138889
        k(   18) = (   0.1666667  -0.0000000   0.1666667), wk =   0.0069444
        k(   19) = (   0.0000000   0.3333333   0.0000000), wk =   0.0034722
        k(   20) = (  -0.0833333   0.4166667  -0.0833333), wk =   0.0138889
        k(   21) = (  -0.1666667   0.5000000  -0.1666667), wk =   0.0138889
        k(   22) = (  -0.2500000   0.5833333  -0.2500000), wk =   0.0138889
        k(   23) = (   0.6666667  -0.3333333   0.6666667), wk =   0.0138889
        k(   24) = (   0.5833333  -0.2500000   0.5833333), wk =   0.0138889
        k(   25) = (   0.5000000  -0.1666667   0.5000000), wk =   0.0138889
        k(   26) = (   0.4166667  -0.0833333   0.4166667), wk =   0.0138889
        k(   27) = (   0.3333333   0.0000000   0.3333333), wk =   0.0069444
        k(   28) = (   0.0000000   0.5000000   0.0000000), wk =   0.0034722
        k(   29) = (  -0.0833333   0.5833333  -0.0833333), wk =   0.0138889
        k(   30) = (  -0.1666667   0.6666667  -0.1666667), wk =   0.0138889
        k(   31) = (   0.7500000  -0.2500000   0.7500000), wk =   0.0138889
        k(   32) = (   0.6666667  -0.1666667   0.6666667), wk =   0.0138889
        k(   33) = (   0.5833333  -0.0833333   0.5833333), wk =   0.0138889
        k(   34) = (   0.5000000   0.0000000   0.5000000), wk =   0.0069444
        k(   35) = (   0.0000000   0.6666667   0.0000000), wk =   0.0034722
        k(   36) = (  -0.0833333   0.7500000  -0.0833333), wk =   0.0138889
        k(   37) = (   0.8333333  -0.1666667   0.8333333), wk =   0.0138889
        k(   38) = (   0.7500000  -0.0833333   0.7500000), wk =   0.0138889
        k(   39) = (   0.6666667  -0.0000000   0.6666667), wk =   0.0069444
        k(   40) = (   0.0000000   0.8333333   0.0000000), wk =   0.0034722
        k(   41) = (   0.9166667  -0.0833333   0.9166667), wk =   0.0138889
        k(   42) = (   0.8333333   0.0000000   0.8333333), wk =   0.0069444
        k(   43) = (   0.0000000  -1.0000000   0.0000000), wk =   0.0017361
        k(   44) = (  -0.1666667   0.3333333   0.0000000), wk =   0.0138889
        k(   45) = (  -0.2500000   0.4166667  -0.0833333), wk =   0.0277778
        k(   46) = (  -0.3333333   0.5000000  -0.1666667), wk =   0.0277778
        k(   47) = (   0.5833333  -0.4166667   0.7500000), wk =   0.0277778
        k(   48) = (   0.5000000  -0.3333333   0.6666667), wk =   0.0138889
        k(   49) = (  -0.1666667   0.5000000   0.0000000), wk =   0.0138889
        k(   50) = (  -0.2500000   0.5833333  -0.0833333), wk =   0.0277778
        k(   51) = (   0.6666667  -0.3333333   0.8333333), wk =   0.0277778
        k(   52) = (   0.5833333  -0.2500000   0.7500000), wk =   0.0277778
        k(   53) = (   0.5000000  -0.1666667   0.6666667), wk =   0.0277778
        k(   54) = (   0.4166667  -0.0833333   0.5833333), wk =   0.0277778
        k(   55) = (   0.3333333   0.0000000   0.5000000), wk =   0.0138889
        k(   56) = (  -0.1666667   0.6666667  -0.0000000), wk =   0.0138889
        k(   57) = (   0.7500000  -0.2500000   0.9166667), wk =   0.0277778
        k(   58) = (   0.6666667  -0.1666667   0.8333333), wk =   0.0277778
        k(   59) = (   0.5833333  -0.0833333   0.7500000), wk =   0.0277778
        k(   60) = (   0.5000000   0.0000000   0.6666667), wk =   0.0138889
        k(   61) = (   0.8333333  -0.1666667   1.0000000), wk =   0.0138889
        k(   62) = (   0.7500000  -0.0833333   0.9166667), wk =   0.0277778
        k(   63) = (   0.6666667   0.0000000   0.8333333), wk =   0.0138889
        k(   64) = (  -0.1666667  -1.0000000  -0.0000000), wk =   0.0069444
        k(   65) = (   0.6666667  -0.3333333   1.0000000), wk =   0.0138889
        k(   66) = (   0.5833333  -0.2500000   0.9166667), wk =   0.0277778
        k(   67) = (   0.5000000  -0.1666667   0.8333333), wk =   0.0138889
        k(   68) = (   0.6666667  -0.1666667   1.0000000), wk =   0.0138889
        k(   69) = (   0.5833333  -0.0833333   0.9166667), wk =   0.0277778
        k(   70) = (   0.5000000   0.0000000   0.8333333), wk =   0.0138889
        k(   71) = (  -0.3333333  -1.0000000   0.0000000), wk =   0.0069444
        k(   72) = (  -0.5000000  -1.0000000   0.0000000), wk =   0.0034722

     Dense  grid:     2975 G-vectors     FFT dimensions: (  24,  24,  24)

     Smooth grid:      965 G-vectors     FFT dimensions: (  15,  15,  15)

     Estimated max dynamical RAM per process >      16.49 MB
     Generating pointlists ...
     new r_m :   0.2917 (alat units)  1.6509 (a.u.) for type    1

     Check: negative core charge=   -0.000002

     Initial potential from superposition of free atoms

     starting charge    8.99962, renormalised to    9.00000
     Starting wfcs are    6 randomized atomic wfcs +    3 random wfcs

     total cpu time spent up to now is        1.3 secs

     Self-consistent Calculation

     iteration #  1     ecut=    30.00 Ry     beta= 0.70
     Davidson diagonalization with overlap
     ethr =  1.00E-02,  avg # of iterations =  4.4

     total cpu time spent up to now is        2.7 secs

     total energy              =     -73.93624522 Ry
     Harris-Foulkes estimate   =     -73.81991304 Ry
     estimated scf accuracy    <       0.48840609 Ry

     total magnetization       =     1.94 Bohr mag/cell
     absolute magnetization    =     1.94 Bohr mag/cell

     iteration #  2     ecut=    30.00 Ry     beta= 0.70
     Davidson diagonalization with overlap
     ethr =  5.43E-03,  avg # of iterations =  1.6

     total cpu time spent up to now is        3.5 secs

     total energy              =     -74.02823345 Ry
     Harris-Foulkes estimate   =     -74.07431484 Ry
     estimated scf accuracy    <       0.17116334 Ry

     total magnetization       =     1.49 Bohr mag/cell
     absolute magnetization    =     1.52 Bohr mag/cell

     iteration #  3     ecut=    30.00 Ry     beta= 0.70
     Davidson diagonalization with overlap
     ethr =  1.90E-03,  avg # of iterations =  1.5

     total cpu time spent up to now is        4.2 secs

     total energy              =     -74.07860924 Ry
     Harris-Foulkes estimate   =     -74.07142772 Ry
     estimated scf accuracy    <       0.03313082 Ry

     total magnetization       =     1.33 Bohr mag/cell
     absolute magnetization    =     1.37 Bohr mag/cell

     iteration #  4     ecut=    30.00 Ry     beta= 0.70
     Davidson diagonalization with overlap
     ethr =  3.68E-04,  avg # of iterations =  1.0

     total cpu time spent up to now is        5.0 secs

     total energy              =     -74.07080626 Ry
     Harris-Foulkes estimate   =     -74.09122687 Ry
     estimated scf accuracy    <       0.00569851 Ry

     total magnetization       =     0.79 Bohr mag/cell
     absolute magnetization    =     0.86 Bohr mag/cell

     iteration #  5     ecut=    30.00 Ry     beta= 0.70
     Davidson diagonalization with overlap
     ethr =  6.33E-05,  avg # of iterations =  1.3

     total cpu time spent up to now is        5.7 secs

     total energy              =     -74.08084147 Ry
     Harris-Foulkes estimate   =     -74.07720208 Ry
     estimated scf accuracy    <       0.01763070 Ry

     total magnetization       =     1.20 Bohr mag/cell
     absolute magnetization    =     1.29 Bohr mag/cell

     iteration #  6     ecut=    30.00 Ry     beta= 0.70
     Davidson diagonalization with overlap
     ethr =  6.33E-05,  avg # of iterations =  1.5

     total cpu time spent up to now is        6.5 secs

     total energy              =     -74.09487574 Ry
     Harris-Foulkes estimate   =     -74.09551133 Ry
     estimated scf accuracy    <       0.00239716 Ry

     total magnetization       =     0.57 Bohr mag/cell
     absolute magnetization    =     0.61 Bohr mag/cell

     iteration #  7     ecut=    30.00 Ry     beta= 0.70
     Davidson diagonalization with overlap
     ethr =  2.66E-05,  avg # of iterations =  1.1

     total cpu time spent up to now is        7.2 secs

     total energy              =     -74.08999444 Ry
     Harris-Foulkes estimate   =     -74.09493301 Ry
     estimated scf accuracy    <       0.00262200 Ry

     total magnetization       =     0.61 Bohr mag/cell
     absolute magnetization    =     0.65 Bohr mag/cell

     iteration #  8     ecut=    30.00 Ry     beta= 0.70
     Davidson diagonalization with overlap
     ethr =  2.66E-05,  avg # of iterations =  1.9

     total cpu time spent up to now is        8.1 secs

     total energy              =     -74.10028800 Ry
     Harris-Foulkes estimate   =     -74.10028524 Ry
     estimated scf accuracy    <       0.00024021 Ry

     total magnetization       =     0.06 Bohr mag/cell
     absolute magnetization    =     0.07 Bohr mag/cell

     iteration #  9     ecut=    30.00 Ry     beta= 0.70
     Davidson diagonalization with overlap
     ethr =  2.67E-06,  avg # of iterations =  2.0

     total cpu time spent up to now is        9.0 secs

     total energy              =     -74.10020068 Ry
     Harris-Foulkes estimate   =     -74.10029237 Ry
     estimated scf accuracy    <       0.00020257 Ry

     total magnetization       =     0.07 Bohr mag/cell
     absolute magnetization    =     0.07 Bohr mag/cell

     iteration # 10     ecut=    30.00 Ry     beta= 0.70
     Davidson diagonalization with overlap
     ethr =  2.25E-06,  avg # of iterations =  1.0

     total cpu time spent up to now is        9.7 secs

     total energy              =     -74.10027270 Ry
     Harris-Foulkes estimate   =     -74.10022098 Ry
     estimated scf accuracy    <       0.00026870 Ry

     total magnetization       =     0.09 Bohr mag/cell
     absolute magnetization    =     0.09 Bohr mag/cell

     iteration # 11     ecut=    30.00 Ry     beta= 0.70
     Davidson diagonalization with overlap
     ethr =  2.25E-06,  avg # of iterations =  1.0

     total cpu time spent up to now is       10.4 secs

     total energy              =     -74.09957768 Ry
     Harris-Foulkes estimate   =     -74.10027509 Ry
     estimated scf accuracy    <       0.00043806 Ry

     total magnetization       =     0.09 Bohr mag/cell
     absolute magnetization    =     0.09 Bohr mag/cell

     iteration # 12     ecut=    30.00 Ry     beta= 0.70
     Davidson diagonalization with overlap
     ethr =  2.25E-06,  avg # of iterations =  1.7

     total cpu time spent up to now is       11.3 secs

     total energy              =     -74.10031336 Ry
     Harris-Foulkes estimate   =     -74.10029497 Ry
     estimated scf accuracy    <       0.00003386 Ry

     total magnetization       =    -0.05 Bohr mag/cell
     absolute magnetization    =     0.05 Bohr mag/cell

     iteration # 13     ecut=    30.00 Ry     beta= 0.70
     Davidson diagonalization with overlap
     ethr =  3.76E-07,  avg # of iterations =  1.0

     total cpu time spent up to now is       12.0 secs

     total energy              =     -74.10030578 Ry
     Harris-Foulkes estimate   =     -74.10033365 Ry
     estimated scf accuracy    <       0.00001087 Ry

     total magnetization       =    -0.02 Bohr mag/cell
     absolute magnetization    =     0.03 Bohr mag/cell

     iteration # 14     ecut=    30.00 Ry     beta= 0.70
     Davidson diagonalization with overlap
     ethr =  1.21E-07,  avg # of iterations =  1.3

     total cpu time spent up to now is       12.7 secs

     total energy              =     -74.10027432 Ry
     Harris-Foulkes estimate   =     -74.10031518 Ry
     estimated scf accuracy    <       0.00003885 Ry

     total magnetization       =    -0.04 Bohr mag/cell
     absolute magnetization    =     0.04 Bohr mag/cell

     iteration # 15     ecut=    30.00 Ry     beta= 0.70
     Davidson diagonalization with overlap
     ethr =  1.21E-07,  avg # of iterations =  2.0

     total cpu time spent up to now is       13.5 secs

     total energy              =     -74.10034609 Ry
     Harris-Foulkes estimate   =     -74.10034593 Ry
     estimated scf accuracy    <       0.00000042 Ry

     total magnetization       =     0.00 Bohr mag/cell
     absolute magnetization    =     0.00 Bohr mag/cell

     iteration # 16     ecut=    30.00 Ry     beta= 0.70
     Davidson diagonalization with overlap
     ethr =  4.69E-09,  avg # of iterations =  1.2

     total cpu time spent up to now is       14.3 secs

     total energy              =     -74.10034611 Ry
     Harris-Foulkes estimate   =     -74.10034620 Ry
     estimated scf accuracy    <       0.00000009 Ry

     total magnetization       =     0.00 Bohr mag/cell
     absolute magnetization    =     0.00 Bohr mag/cell

     iteration # 17     ecut=    30.00 Ry     beta= 0.70
     Davidson diagonalization with overlap
     ethr =  9.64E-10,  avg # of iterations =  1.6

     Magnetic moment per site:
     atom:    1    charge:    7.3520    magn:   -0.0002    constr:    0.0000

     total cpu time spent up to now is       15.0 secs

     End of self-consistent calculation

     Number of k-points >= 100: set verbosity='high' to print the bands.

     the Fermi energy is    25.0700 ev

!    total energy              =     -74.10034631 Ry
     Harris-Foulkes estimate   =     -74.10034631 Ry
     estimated scf accuracy    <          3.9E-09 Ry

     The total energy is the sum of the following terms:

     one-electron contribution =      17.20100061 Ry
     hartree contribution      =       7.22798700 Ry
     xc contribution           =     -32.91581258 Ry
     ewald contribution        =     -65.61375054 Ry
     smearing contrib. (-TS)   =       0.00022920 Ry

     total magnetization       =    -0.00 Bohr mag/cell
     absolute magnetization    =     0.00 Bohr mag/cell

     convergence has been achieved in  17 iterations

     Forces acting on atoms (cartesian axes, Ry/au):

     atom    1 type  1   force =     0.00000000    0.00000000    0.00000000

     Total force =     0.000000     Total SCF correction =     0.000000


     Computing stress (Cartesian axis) and pressure

          total   stress  (Ry/bohr**3)                   (kbar)     P= 2462.30
   0.01673840  -0.00000000  -0.00000000       2462.30     -0.00     -0.00
  -0.00000000   0.01673840   0.00000000         -0.00   2462.30      0.00
  -0.00000000   0.00000000   0.01673840         -0.00      0.00   2462.30


     Writing output data file Co.FCC.save/

     init_run     :      1.05s CPU      1.07s WALL (       1 calls)
     electrons    :     13.18s CPU     13.67s WALL (       1 calls)
     forces       :      0.16s CPU      0.17s WALL (       1 calls)
     stress       :      0.37s CPU      0.37s WALL (       1 calls)

     Called by init_run:
     wfcinit      :      0.22s CPU      0.22s WALL (       1 calls)
     potinit      :      0.02s CPU      0.02s WALL (       1 calls)
     hinit0       :      0.77s CPU      0.79s WALL (       1 calls)

     Called by electrons:
     c_bands      :      9.76s CPU     10.19s WALL (      17 calls)
     sum_band     :      2.65s CPU      2.70s WALL (      17 calls)
     v_of_rho     :      0.21s CPU      0.21s WALL (      18 calls)
     newd         :      0.53s CPU      0.54s WALL (      18 calls)
     mix_rho      :      0.05s CPU      0.05s WALL (      17 calls)

     Called by c_bands:
     init_us_2    :      0.52s CPU      0.54s WALL (    5328 calls)
     cegterg      :      9.03s CPU      9.43s WALL (    2448 calls)

     Called by sum_band:
     sum_band:bec :      0.08s CPU      0.09s WALL (    2448 calls)
     addusdens    :      0.95s CPU      0.96s WALL (      17 calls)

     Called by *egterg:
     h_psi        :      5.00s CPU      5.23s WALL (    6496 calls)
     s_psi        :      0.63s CPU      0.66s WALL (    6496 calls)
     g_psi        :      0.03s CPU      0.04s WALL (    3904 calls)
     cdiaghg      :      1.61s CPU      1.68s WALL (    6352 calls)

     Called by h_psi:
     h_psi:pot    :      4.97s CPU      5.19s WALL (    6496 calls)
     h_psi:calbec :      0.69s CPU      0.73s WALL (    6496 calls)
     vloc_psi     :      3.61s CPU      3.77s WALL (    6496 calls)
     add_vuspsi   :      0.63s CPU      0.66s WALL (    6496 calls)

     General routines
     calbec       :      1.05s CPU      1.09s WALL (    9664 calls)
     fft          :      0.12s CPU      0.12s WALL (     202 calls)
     ffts         :      0.00s CPU      0.00s WALL (      70 calls)
     fftw         :      2.68s CPU      2.79s WALL (  120406 calls)
     interpolate  :      0.02s CPU      0.02s WALL (      36 calls)

     Parallel routines

     PWSCF        :     15.09s CPU     15.64s WALL


   This run was terminated on:   8:51: 5  19Feb2020            

=------------------------------------------------------------------------------=
   JOB DONE.
=------------------------------------------------------------------------------=
