     Message from routine get_command_line:
     unexpected argument # 2     :-input

     Program PWSCF v.6.4.1 starts on 19Feb2020 at  9:10:35 

     This program is part of the open-source Quantum ESPRESSO suite
     for quantum simulation of materials; please cite
         "P. Giannozzi et al., J. Phys.:Condens. Matter 21 395502 (2009);
         "P. Giannozzi et al., J. Phys.:Condens. Matter 29 465901 (2017);
          URL http://www.quantum-espresso.org", 
     in publications or presentations arising from this work. More details at
     http://www.quantum-espresso.org/quote

     Parallel version (MPI), running on     1 processors

     MPI processes distributed on     1 nodes
     Waiting for input...
     Reading input from standard input
     Message from routine read_cards :
     DEPRECATED: no units specified in ATOMIC_POSITIONS card
     Message from routine read_cards :
     ATOMIC_POSITIONS: units set to alat

     Current dimensions of program PWSCF are:
     Max number of different atomic species (ntypx) = 10
     Max number of k-points (npk) =  40000
     Max angular momentum in pseudopotentials (lmaxx) =  3
               file Co.pz-nd-rrkjus.UPF: wavefunction(s)  4S 3D renormalized

     Subspace diagonalization in iterative solution of the eigenvalue problem:
     a serial algorithm will be used


     G-vector sticks info
     --------------------
     sticks:   dense  smooth     PW     G-vecs:    dense   smooth      PW
     Sum         511     253     85                 7799     2637     537



     bravais-lattice index     =            2
     lattice parameter (alat)  =       7.7800  a.u.
     unit-cell volume          =     117.7277 (a.u.)^3
     number of atoms/cell      =            1
     number of atomic types    =            1
     number of electrons       =         9.00
     number of Kohn-Sham states=            9
     kinetic-energy cutoff     =      30.0000  Ry
     charge density cutoff     =     250.0000  Ry
     convergence threshold     =      1.0E-08
     mixing beta               =       0.7000
     number of iterations used =            8  plain     mixing
     Exchange-correlation      =  SLA  PZ   NOGX NOGC ( 1  1  0  0 0 0)

     celldm(1)=   7.780000  celldm(2)=   0.000000  celldm(3)=   0.000000
     celldm(4)=   0.000000  celldm(5)=   0.000000  celldm(6)=   0.000000

     crystal axes: (cart. coord. in units of alat)
               a(1) = (  -0.500000   0.000000   0.500000 )  
               a(2) = (   0.000000   0.500000   0.500000 )  
               a(3) = (  -0.500000   0.500000   0.000000 )  

     reciprocal axes: (cart. coord. in units 2 pi/alat)
               b(1) = ( -1.000000 -1.000000  1.000000 )  
               b(2) = (  1.000000  1.000000  1.000000 )  
               b(3) = ( -1.000000  1.000000 -1.000000 )  


     PseudoPot. # 1 for Co read from file:
     ./Co.pz-nd-rrkjus.UPF
     MD5 check sum: c80159f6ca3a93d3df3cfc6468bb3c3d
     Pseudo is Ultrasoft + core correction, Zval =  9.0
     Generated by new atomic code, or converted to UPF format
     Using radial grid of  961 points,  6 beta functions with: 
                l(1) =   0
                l(2) =   0
                l(3) =   1
                l(4) =   1
                l(5) =   2
                l(6) =   2
     Q(r) pseudized with 0 coefficients 


     atomic species   valence    mass     pseudopotential
        Co             9.00    58.93300     Co( 1.00)

     Starting magnetic structure 
     atomic species   magnetization
        Co           0.700

     48 Sym. Ops., with inversion, found



   Cartesian axes

     site n.     atom                  positions (alat units)
         1           Co  tau(   1) = (   0.0000000   0.0000000   0.0000000  )

     number of k points=    72  Marzari-Vanderbilt smearing, width (Ry)=  0.0300
                       cart. coord. in units 2pi/alat
        k(    1) = (   0.0000000   0.0000000   0.0000000), wk =   0.0005787
        k(    2) = (  -0.0833333   0.0833333  -0.0833333), wk =   0.0046296
        k(    3) = (  -0.1666667   0.1666667  -0.1666667), wk =   0.0046296
        k(    4) = (  -0.2500000   0.2500000  -0.2500000), wk =   0.0046296
        k(    5) = (  -0.3333333   0.3333333  -0.3333333), wk =   0.0046296
        k(    6) = (  -0.4166667   0.4166667  -0.4166667), wk =   0.0046296
        k(    7) = (   0.5000000  -0.5000000   0.5000000), wk =   0.0023148
        k(    8) = (   0.0000000   0.1666667   0.0000000), wk =   0.0034722
        k(    9) = (  -0.0833333   0.2500000  -0.0833333), wk =   0.0138889
        k(   10) = (  -0.1666667   0.3333333  -0.1666667), wk =   0.0138889
        k(   11) = (  -0.2500000   0.4166667  -0.2500000), wk =   0.0138889
        k(   12) = (  -0.3333333   0.5000000  -0.3333333), wk =   0.0138889
        k(   13) = (   0.5833333  -0.4166667   0.5833333), wk =   0.0138889
        k(   14) = (   0.5000000  -0.3333333   0.5000000), wk =   0.0138889
        k(   15) = (   0.4166667  -0.2500000   0.4166667), wk =   0.0138889
        k(   16) = (   0.3333333  -0.1666667   0.3333333), wk =   0.0138889
        k(   17) = (   0.2500000  -0.0833333   0.2500000), wk =   0.0138889
        k(   18) = (   0.1666667  -0.0000000   0.1666667), wk =   0.0069444
        k(   19) = (   0.0000000   0.3333333   0.0000000), wk =   0.0034722
        k(   20) = (  -0.0833333   0.4166667  -0.0833333), wk =   0.0138889
        k(   21) = (  -0.1666667   0.5000000  -0.1666667), wk =   0.0138889
        k(   22) = (  -0.2500000   0.5833333  -0.2500000), wk =   0.0138889
        k(   23) = (   0.6666667  -0.3333333   0.6666667), wk =   0.0138889
        k(   24) = (   0.5833333  -0.2500000   0.5833333), wk =   0.0138889
        k(   25) = (   0.5000000  -0.1666667   0.5000000), wk =   0.0138889
        k(   26) = (   0.4166667  -0.0833333   0.4166667), wk =   0.0138889
        k(   27) = (   0.3333333   0.0000000   0.3333333), wk =   0.0069444
        k(   28) = (   0.0000000   0.5000000   0.0000000), wk =   0.0034722
        k(   29) = (  -0.0833333   0.5833333  -0.0833333), wk =   0.0138889
        k(   30) = (  -0.1666667   0.6666667  -0.1666667), wk =   0.0138889
        k(   31) = (   0.7500000  -0.2500000   0.7500000), wk =   0.0138889
        k(   32) = (   0.6666667  -0.1666667   0.6666667), wk =   0.0138889
        k(   33) = (   0.5833333  -0.0833333   0.5833333), wk =   0.0138889
        k(   34) = (   0.5000000   0.0000000   0.5000000), wk =   0.0069444
        k(   35) = (   0.0000000   0.6666667   0.0000000), wk =   0.0034722
        k(   36) = (  -0.0833333   0.7500000  -0.0833333), wk =   0.0138889
        k(   37) = (   0.8333333  -0.1666667   0.8333333), wk =   0.0138889
        k(   38) = (   0.7500000  -0.0833333   0.7500000), wk =   0.0138889
        k(   39) = (   0.6666667  -0.0000000   0.6666667), wk =   0.0069444
        k(   40) = (   0.0000000   0.8333333   0.0000000), wk =   0.0034722
        k(   41) = (   0.9166667  -0.0833333   0.9166667), wk =   0.0138889
        k(   42) = (   0.8333333   0.0000000   0.8333333), wk =   0.0069444
        k(   43) = (   0.0000000  -1.0000000   0.0000000), wk =   0.0017361
        k(   44) = (  -0.1666667   0.3333333   0.0000000), wk =   0.0138889
        k(   45) = (  -0.2500000   0.4166667  -0.0833333), wk =   0.0277778
        k(   46) = (  -0.3333333   0.5000000  -0.1666667), wk =   0.0277778
        k(   47) = (   0.5833333  -0.4166667   0.7500000), wk =   0.0277778
        k(   48) = (   0.5000000  -0.3333333   0.6666667), wk =   0.0138889
        k(   49) = (  -0.1666667   0.5000000   0.0000000), wk =   0.0138889
        k(   50) = (  -0.2500000   0.5833333  -0.0833333), wk =   0.0277778
        k(   51) = (   0.6666667  -0.3333333   0.8333333), wk =   0.0277778
        k(   52) = (   0.5833333  -0.2500000   0.7500000), wk =   0.0277778
        k(   53) = (   0.5000000  -0.1666667   0.6666667), wk =   0.0277778
        k(   54) = (   0.4166667  -0.0833333   0.5833333), wk =   0.0277778
        k(   55) = (   0.3333333   0.0000000   0.5000000), wk =   0.0138889
        k(   56) = (  -0.1666667   0.6666667  -0.0000000), wk =   0.0138889
        k(   57) = (   0.7500000  -0.2500000   0.9166667), wk =   0.0277778
        k(   58) = (   0.6666667  -0.1666667   0.8333333), wk =   0.0277778
        k(   59) = (   0.5833333  -0.0833333   0.7500000), wk =   0.0277778
        k(   60) = (   0.5000000   0.0000000   0.6666667), wk =   0.0138889
        k(   61) = (   0.8333333  -0.1666667   1.0000000), wk =   0.0138889
        k(   62) = (   0.7500000  -0.0833333   0.9166667), wk =   0.0277778
        k(   63) = (   0.6666667   0.0000000   0.8333333), wk =   0.0138889
        k(   64) = (  -0.1666667  -1.0000000  -0.0000000), wk =   0.0069444
        k(   65) = (   0.6666667  -0.3333333   1.0000000), wk =   0.0138889
        k(   66) = (   0.5833333  -0.2500000   0.9166667), wk =   0.0277778
        k(   67) = (   0.5000000  -0.1666667   0.8333333), wk =   0.0138889
        k(   68) = (   0.6666667  -0.1666667   1.0000000), wk =   0.0138889
        k(   69) = (   0.5833333  -0.0833333   0.9166667), wk =   0.0277778
        k(   70) = (   0.5000000   0.0000000   0.8333333), wk =   0.0138889
        k(   71) = (  -0.3333333  -1.0000000   0.0000000), wk =   0.0069444
        k(   72) = (  -0.5000000  -1.0000000   0.0000000), wk =   0.0034722

     Dense  grid:     7799 G-vectors     FFT dimensions: (  27,  27,  27)

     Smooth grid:     2637 G-vectors     FFT dimensions: (  20,  20,  20)

     Estimated max dynamical RAM per process >      39.96 MB
     Generating pointlists ...
     new r_m :   0.2917 (alat units)  2.2693 (a.u.) for type    1

     Check: negative core charge=   -0.000069

     Initial potential from superposition of free atoms

     starting charge    8.99962, renormalised to    9.00000
     Starting wfcs are    6 randomized atomic wfcs +    3 random wfcs

     total cpu time spent up to now is        2.0 secs

     Self-consistent Calculation

     iteration #  1     ecut=    30.00 Ry     beta= 0.70
     Davidson diagonalization with overlap
     ethr =  1.00E-02,  avg # of iterations =  4.4

     total cpu time spent up to now is        4.6 secs

     total energy              =     -73.68563988 Ry
     Harris-Foulkes estimate   =     -74.04066233 Ry
     estimated scf accuracy    <       0.73159942 Ry

     total magnetization       =     3.04 Bohr mag/cell
     absolute magnetization    =     3.05 Bohr mag/cell

     iteration #  2     ecut=    30.00 Ry     beta= 0.70
     Davidson diagonalization with overlap
     ethr =  8.13E-03,  avg # of iterations =  2.1

     total cpu time spent up to now is        6.5 secs

     total energy              =     -73.77488370 Ry
     Harris-Foulkes estimate   =     -74.56991101 Ry
     estimated scf accuracy    <       2.38151519 Ry

     total magnetization       =     1.32 Bohr mag/cell
     absolute magnetization    =     1.37 Bohr mag/cell

     iteration #  3     ecut=    30.00 Ry     beta= 0.70
     Davidson diagonalization with overlap
     ethr =  8.13E-03,  avg # of iterations =  2.0

     total cpu time spent up to now is        8.3 secs

     total energy              =     -74.10307849 Ry
     Harris-Foulkes estimate   =     -74.08791096 Ry
     estimated scf accuracy    <       0.02491245 Ry

     total magnetization       =     2.12 Bohr mag/cell
     absolute magnetization    =     2.23 Bohr mag/cell

     iteration #  4     ecut=    30.00 Ry     beta= 0.70
     Davidson diagonalization with overlap
     ethr =  2.77E-04,  avg # of iterations =  2.2

     total cpu time spent up to now is       10.1 secs

     total energy              =     -74.10959942 Ry
     Harris-Foulkes estimate   =     -74.10930924 Ry
     estimated scf accuracy    <       0.00063674 Ry

     total magnetization       =     1.93 Bohr mag/cell
     absolute magnetization    =     2.13 Bohr mag/cell

     iteration #  5     ecut=    30.00 Ry     beta= 0.70
     Davidson diagonalization with overlap
     ethr =  7.07E-06,  avg # of iterations =  3.1

     total cpu time spent up to now is       12.1 secs

     total energy              =     -74.10992355 Ry
     Harris-Foulkes estimate   =     -74.10991256 Ry
     estimated scf accuracy    <       0.00003196 Ry

     total magnetization       =     1.87 Bohr mag/cell
     absolute magnetization    =     2.08 Bohr mag/cell

     iteration #  6     ecut=    30.00 Ry     beta= 0.70
     Davidson diagonalization with overlap
     ethr =  3.55E-07,  avg # of iterations =  2.3

     total cpu time spent up to now is       14.0 secs

     total energy              =     -74.10993564 Ry
     Harris-Foulkes estimate   =     -74.10993802 Ry
     estimated scf accuracy    <       0.00000987 Ry

     total magnetization       =     1.87 Bohr mag/cell
     absolute magnetization    =     2.07 Bohr mag/cell

     iteration #  7     ecut=    30.00 Ry     beta= 0.70
     Davidson diagonalization with overlap
     ethr =  1.10E-07,  avg # of iterations =  1.5

     total cpu time spent up to now is       15.6 secs

     total energy              =     -74.10993813 Ry
     Harris-Foulkes estimate   =     -74.10993850 Ry
     estimated scf accuracy    <       0.00000110 Ry

     total magnetization       =     1.87 Bohr mag/cell
     absolute magnetization    =     2.07 Bohr mag/cell

     iteration #  8     ecut=    30.00 Ry     beta= 0.70
     Davidson diagonalization with overlap
     ethr =  1.23E-08,  avg # of iterations =  1.5

     total cpu time spent up to now is       17.2 secs

     total energy              =     -74.10993839 Ry
     Harris-Foulkes estimate   =     -74.10993840 Ry
     estimated scf accuracy    <       0.00000003 Ry

     total magnetization       =     1.87 Bohr mag/cell
     absolute magnetization    =     2.07 Bohr mag/cell

     iteration #  9     ecut=    30.00 Ry     beta= 0.70
     Davidson diagonalization with overlap
     ethr =  3.27E-10,  avg # of iterations =  2.2

     Magnetic moment per site:
     atom:    1    charge:    7.9568    magn:    1.9573    constr:    0.0000

     total cpu time spent up to now is       19.1 secs

     End of self-consistent calculation

     Number of k-points >= 100: set verbosity='high' to print the bands.

     the Fermi energy is     7.1159 ev

!    total energy              =     -74.10993840 Ry
     Harris-Foulkes estimate   =     -74.10993840 Ry
     estimated scf accuracy    <          1.9E-09 Ry

     The total energy is the sum of the following terms:

     one-electron contribution =      -8.80394286 Ry
     hartree contribution      =      14.61285948 Ry
     xc contribution           =     -32.18453047 Ry
     ewald contribution        =     -47.73442520 Ry
     smearing contrib. (-TS)   =       0.00010066 Ry

     total magnetization       =     1.87 Bohr mag/cell
     absolute magnetization    =     2.07 Bohr mag/cell

     convergence has been achieved in   9 iterations

     Forces acting on atoms (cartesian axes, Ry/au):

     atom    1 type  1   force =     0.00000000    0.00000000    0.00000000

     Total force =     0.000000     Total SCF correction =     0.000000


     Computing stress (Cartesian axis) and pressure

          total   stress  (Ry/bohr**3)                   (kbar)     P= -394.04
  -0.00267863   0.00000000  -0.00000000       -394.04      0.00     -0.00
  -0.00000000  -0.00267863   0.00000000         -0.00   -394.04      0.00
  -0.00000000   0.00000000  -0.00267863         -0.00      0.00   -394.04


     Writing output data file Co.FCC.save/

     init_run     :      1.59s CPU      1.70s WALL (       1 calls)
     electrons    :     16.63s CPU     17.13s WALL (       1 calls)
     forces       :      0.45s CPU      0.46s WALL (       1 calls)
     stress       :      0.93s CPU      0.94s WALL (       1 calls)

     Called by init_run:
     wfcinit      :      0.49s CPU      0.52s WALL (       1 calls)
     potinit      :      0.03s CPU      0.03s WALL (       1 calls)
     hinit0       :      0.98s CPU      1.05s WALL (       1 calls)

     Called by electrons:
     c_bands      :     12.45s CPU     12.89s WALL (       9 calls)
     sum_band     :      3.25s CPU      3.30s WALL (       9 calls)
     v_of_rho     :      0.17s CPU      0.17s WALL (      10 calls)
     newd         :      0.75s CPU      0.77s WALL (      10 calls)
     mix_rho      :      0.06s CPU      0.06s WALL (       9 calls)

     Called by c_bands:
     init_us_2    :      0.59s CPU      0.61s WALL (    3024 calls)
     cegterg      :     11.60s CPU     12.00s WALL (    1296 calls)

     Called by sum_band:
     sum_band:bec :      0.05s CPU      0.05s WALL (    1296 calls)
     addusdens    :      1.31s CPU      1.32s WALL (       9 calls)

     Called by *egterg:
     h_psi        :      6.65s CPU      6.90s WALL (    4506 calls)
     s_psi        :      0.91s CPU      0.95s WALL (    4506 calls)
     g_psi        :      0.05s CPU      0.05s WALL (    3066 calls)
     cdiaghg      :      1.34s CPU      1.40s WALL (    4362 calls)

     Called by h_psi:
     h_psi:pot    :      6.61s CPU      6.85s WALL (    4506 calls)
     h_psi:calbec :      1.07s CPU      1.11s WALL (    4506 calls)
     vloc_psi     :      4.60s CPU      4.77s WALL (    4506 calls)
     add_vuspsi   :      0.92s CPU      0.95s WALL (    4506 calls)

     General routines
     calbec       :      1.68s CPU      1.74s WALL (    6522 calls)
     fft          :      0.15s CPU      0.15s WALL (     114 calls)
     ffts         :      0.00s CPU      0.00s WALL (      38 calls)
     fftw         :      3.19s CPU      3.31s WALL (   71022 calls)
     interpolate  :      0.03s CPU      0.03s WALL (      20 calls)

     Parallel routines

     PWSCF        :     19.92s CPU     20.59s WALL


   This run was terminated on:   9:10:56  19Feb2020            

=------------------------------------------------------------------------------=
   JOB DONE.
=------------------------------------------------------------------------------=
