     Message from routine get_command_line:
     unexpected argument # 2     :-input

     Program PWSCF v.6.4.1 starts on 19Feb2020 at  9: 2:54 

     This program is part of the open-source Quantum ESPRESSO suite
     for quantum simulation of materials; please cite
         "P. Giannozzi et al., J. Phys.:Condens. Matter 21 395502 (2009);
         "P. Giannozzi et al., J. Phys.:Condens. Matter 29 465901 (2017);
          URL http://www.quantum-espresso.org", 
     in publications or presentations arising from this work. More details at
     http://www.quantum-espresso.org/quote

     Parallel version (MPI), running on     1 processors

     MPI processes distributed on     1 nodes
     Waiting for input...
     Reading input from standard input
     Message from routine read_cards :
     DEPRECATED: no units specified in ATOMIC_POSITIONS card
     Message from routine read_cards :
     ATOMIC_POSITIONS: units set to alat

     Current dimensions of program PWSCF are:
     Max number of different atomic species (ntypx) = 10
     Max number of k-points (npk) =  40000
     Max angular momentum in pseudopotentials (lmaxx) =  3
               file Co.pz-nd-rrkjus.UPF: wavefunction(s)  4S 3D renormalized

     Subspace diagonalization in iterative solution of the eigenvalue problem:
     a serial algorithm will be used


     G-vector sticks info
     --------------------
     sticks:   dense  smooth     PW     G-vecs:    dense   smooth      PW
     Sum         463     211     85                 6567     2109     531



     bravais-lattice index     =            2
     lattice parameter (alat)  =       7.3200  a.u.
     unit-cell volume          =      98.0558 (a.u.)^3
     number of atoms/cell      =            1
     number of atomic types    =            1
     number of electrons       =         9.00
     number of Kohn-Sham states=            9
     kinetic-energy cutoff     =      30.0000  Ry
     charge density cutoff     =     250.0000  Ry
     convergence threshold     =      1.0E-08
     mixing beta               =       0.7000
     number of iterations used =            8  plain     mixing
     Exchange-correlation      =  SLA  PZ   NOGX NOGC ( 1  1  0  0 0 0)

     celldm(1)=   7.320000  celldm(2)=   0.000000  celldm(3)=   0.000000
     celldm(4)=   0.000000  celldm(5)=   0.000000  celldm(6)=   0.000000

     crystal axes: (cart. coord. in units of alat)
               a(1) = (  -0.500000   0.000000   0.500000 )  
               a(2) = (   0.000000   0.500000   0.500000 )  
               a(3) = (  -0.500000   0.500000   0.000000 )  

     reciprocal axes: (cart. coord. in units 2 pi/alat)
               b(1) = ( -1.000000 -1.000000  1.000000 )  
               b(2) = (  1.000000  1.000000  1.000000 )  
               b(3) = ( -1.000000  1.000000 -1.000000 )  


     PseudoPot. # 1 for Co read from file:
     ./Co.pz-nd-rrkjus.UPF
     MD5 check sum: c80159f6ca3a93d3df3cfc6468bb3c3d
     Pseudo is Ultrasoft + core correction, Zval =  9.0
     Generated by new atomic code, or converted to UPF format
     Using radial grid of  961 points,  6 beta functions with: 
                l(1) =   0
                l(2) =   0
                l(3) =   1
                l(4) =   1
                l(5) =   2
                l(6) =   2
     Q(r) pseudized with 0 coefficients 


     atomic species   valence    mass     pseudopotential
        Co             9.00    58.93300     Co( 1.00)

     Starting magnetic structure 
     atomic species   magnetization
        Co           0.700

     48 Sym. Ops., with inversion, found



   Cartesian axes

     site n.     atom                  positions (alat units)
         1           Co  tau(   1) = (   0.0000000   0.0000000   0.0000000  )

     number of k points=    72  Marzari-Vanderbilt smearing, width (Ry)=  0.0300
                       cart. coord. in units 2pi/alat
        k(    1) = (   0.0000000   0.0000000   0.0000000), wk =   0.0005787
        k(    2) = (  -0.0833333   0.0833333  -0.0833333), wk =   0.0046296
        k(    3) = (  -0.1666667   0.1666667  -0.1666667), wk =   0.0046296
        k(    4) = (  -0.2500000   0.2500000  -0.2500000), wk =   0.0046296
        k(    5) = (  -0.3333333   0.3333333  -0.3333333), wk =   0.0046296
        k(    6) = (  -0.4166667   0.4166667  -0.4166667), wk =   0.0046296
        k(    7) = (   0.5000000  -0.5000000   0.5000000), wk =   0.0023148
        k(    8) = (   0.0000000   0.1666667   0.0000000), wk =   0.0034722
        k(    9) = (  -0.0833333   0.2500000  -0.0833333), wk =   0.0138889
        k(   10) = (  -0.1666667   0.3333333  -0.1666667), wk =   0.0138889
        k(   11) = (  -0.2500000   0.4166667  -0.2500000), wk =   0.0138889
        k(   12) = (  -0.3333333   0.5000000  -0.3333333), wk =   0.0138889
        k(   13) = (   0.5833333  -0.4166667   0.5833333), wk =   0.0138889
        k(   14) = (   0.5000000  -0.3333333   0.5000000), wk =   0.0138889
        k(   15) = (   0.4166667  -0.2500000   0.4166667), wk =   0.0138889
        k(   16) = (   0.3333333  -0.1666667   0.3333333), wk =   0.0138889
        k(   17) = (   0.2500000  -0.0833333   0.2500000), wk =   0.0138889
        k(   18) = (   0.1666667  -0.0000000   0.1666667), wk =   0.0069444
        k(   19) = (   0.0000000   0.3333333   0.0000000), wk =   0.0034722
        k(   20) = (  -0.0833333   0.4166667  -0.0833333), wk =   0.0138889
        k(   21) = (  -0.1666667   0.5000000  -0.1666667), wk =   0.0138889
        k(   22) = (  -0.2500000   0.5833333  -0.2500000), wk =   0.0138889
        k(   23) = (   0.6666667  -0.3333333   0.6666667), wk =   0.0138889
        k(   24) = (   0.5833333  -0.2500000   0.5833333), wk =   0.0138889
        k(   25) = (   0.5000000  -0.1666667   0.5000000), wk =   0.0138889
        k(   26) = (   0.4166667  -0.0833333   0.4166667), wk =   0.0138889
        k(   27) = (   0.3333333   0.0000000   0.3333333), wk =   0.0069444
        k(   28) = (   0.0000000   0.5000000   0.0000000), wk =   0.0034722
        k(   29) = (  -0.0833333   0.5833333  -0.0833333), wk =   0.0138889
        k(   30) = (  -0.1666667   0.6666667  -0.1666667), wk =   0.0138889
        k(   31) = (   0.7500000  -0.2500000   0.7500000), wk =   0.0138889
        k(   32) = (   0.6666667  -0.1666667   0.6666667), wk =   0.0138889
        k(   33) = (   0.5833333  -0.0833333   0.5833333), wk =   0.0138889
        k(   34) = (   0.5000000   0.0000000   0.5000000), wk =   0.0069444
        k(   35) = (   0.0000000   0.6666667   0.0000000), wk =   0.0034722
        k(   36) = (  -0.0833333   0.7500000  -0.0833333), wk =   0.0138889
        k(   37) = (   0.8333333  -0.1666667   0.8333333), wk =   0.0138889
        k(   38) = (   0.7500000  -0.0833333   0.7500000), wk =   0.0138889
        k(   39) = (   0.6666667  -0.0000000   0.6666667), wk =   0.0069444
        k(   40) = (   0.0000000   0.8333333   0.0000000), wk =   0.0034722
        k(   41) = (   0.9166667  -0.0833333   0.9166667), wk =   0.0138889
        k(   42) = (   0.8333333   0.0000000   0.8333333), wk =   0.0069444
        k(   43) = (   0.0000000  -1.0000000   0.0000000), wk =   0.0017361
        k(   44) = (  -0.1666667   0.3333333   0.0000000), wk =   0.0138889
        k(   45) = (  -0.2500000   0.4166667  -0.0833333), wk =   0.0277778
        k(   46) = (  -0.3333333   0.5000000  -0.1666667), wk =   0.0277778
        k(   47) = (   0.5833333  -0.4166667   0.7500000), wk =   0.0277778
        k(   48) = (   0.5000000  -0.3333333   0.6666667), wk =   0.0138889
        k(   49) = (  -0.1666667   0.5000000   0.0000000), wk =   0.0138889
        k(   50) = (  -0.2500000   0.5833333  -0.0833333), wk =   0.0277778
        k(   51) = (   0.6666667  -0.3333333   0.8333333), wk =   0.0277778
        k(   52) = (   0.5833333  -0.2500000   0.7500000), wk =   0.0277778
        k(   53) = (   0.5000000  -0.1666667   0.6666667), wk =   0.0277778
        k(   54) = (   0.4166667  -0.0833333   0.5833333), wk =   0.0277778
        k(   55) = (   0.3333333   0.0000000   0.5000000), wk =   0.0138889
        k(   56) = (  -0.1666667   0.6666667  -0.0000000), wk =   0.0138889
        k(   57) = (   0.7500000  -0.2500000   0.9166667), wk =   0.0277778
        k(   58) = (   0.6666667  -0.1666667   0.8333333), wk =   0.0277778
        k(   59) = (   0.5833333  -0.0833333   0.7500000), wk =   0.0277778
        k(   60) = (   0.5000000   0.0000000   0.6666667), wk =   0.0138889
        k(   61) = (   0.8333333  -0.1666667   1.0000000), wk =   0.0138889
        k(   62) = (   0.7500000  -0.0833333   0.9166667), wk =   0.0277778
        k(   63) = (   0.6666667   0.0000000   0.8333333), wk =   0.0138889
        k(   64) = (  -0.1666667  -1.0000000  -0.0000000), wk =   0.0069444
        k(   65) = (   0.6666667  -0.3333333   1.0000000), wk =   0.0138889
        k(   66) = (   0.5833333  -0.2500000   0.9166667), wk =   0.0277778
        k(   67) = (   0.5000000  -0.1666667   0.8333333), wk =   0.0138889
        k(   68) = (   0.6666667  -0.1666667   1.0000000), wk =   0.0138889
        k(   69) = (   0.5833333  -0.0833333   0.9166667), wk =   0.0277778
        k(   70) = (   0.5000000   0.0000000   0.8333333), wk =   0.0138889
        k(   71) = (  -0.3333333  -1.0000000   0.0000000), wk =   0.0069444
        k(   72) = (  -0.5000000  -1.0000000   0.0000000), wk =   0.0034722

     Dense  grid:     6567 G-vectors     FFT dimensions: (  27,  27,  27)

     Smooth grid:     2109 G-vectors     FFT dimensions: (  18,  18,  18)

     Estimated max dynamical RAM per process >      34.06 MB
     Generating pointlists ...
     new r_m :   0.2917 (alat units)  2.1351 (a.u.) for type    1

     Check: negative core charge=   -0.000057

     Initial potential from superposition of free atoms

     starting charge    8.99962, renormalised to    9.00000
     Starting wfcs are    6 randomized atomic wfcs +    3 random wfcs

     total cpu time spent up to now is        2.3 secs

     Self-consistent Calculation

     iteration #  1     ecut=    30.00 Ry     beta= 0.70
     Davidson diagonalization with overlap
     ethr =  1.00E-02,  avg # of iterations =  4.3

     total cpu time spent up to now is        6.4 secs

     total energy              =     -73.80370136 Ry
     Harris-Foulkes estimate   =     -74.07663930 Ry
     estimated scf accuracy    <       0.68323176 Ry

     total magnetization       =     2.81 Bohr mag/cell
     absolute magnetization    =     2.82 Bohr mag/cell

     iteration #  2     ecut=    30.00 Ry     beta= 0.70
     Davidson diagonalization with overlap
     ethr =  7.59E-03,  avg # of iterations =  2.1

     total cpu time spent up to now is        9.5 secs

     total energy              =     -73.89315854 Ry
     Harris-Foulkes estimate   =     -74.48332599 Ry
     estimated scf accuracy    <       1.64623190 Ry

     total magnetization       =     1.47 Bohr mag/cell
     absolute magnetization    =     1.55 Bohr mag/cell

     iteration #  3     ecut=    30.00 Ry     beta= 0.70
     Davidson diagonalization with overlap
     ethr =  7.59E-03,  avg # of iterations =  1.7

     total cpu time spent up to now is       12.2 secs

     total energy              =     -74.15661320 Ry
     Harris-Foulkes estimate   =     -74.14105110 Ry
     estimated scf accuracy    <       0.01627592 Ry

     total magnetization       =     2.07 Bohr mag/cell
     absolute magnetization    =     2.18 Bohr mag/cell

     iteration #  4     ecut=    30.00 Ry     beta= 0.70
     Davidson diagonalization with overlap
     ethr =  1.81E-04,  avg # of iterations =  2.2

     total cpu time spent up to now is       15.2 secs

     total energy              =     -74.16396831 Ry
     Harris-Foulkes estimate   =     -74.16350746 Ry
     estimated scf accuracy    <       0.00089878 Ry

     total magnetization       =     1.82 Bohr mag/cell
     absolute magnetization    =     2.00 Bohr mag/cell

     iteration #  5     ecut=    30.00 Ry     beta= 0.70
     Davidson diagonalization with overlap
     ethr =  9.99E-06,  avg # of iterations =  2.2

     total cpu time spent up to now is       17.9 secs

     total energy              =     -74.16415250 Ry
     Harris-Foulkes estimate   =     -74.16412587 Ry
     estimated scf accuracy    <       0.00002633 Ry

     total magnetization       =     1.79 Bohr mag/cell
     absolute magnetization    =     1.97 Bohr mag/cell

     iteration #  6     ecut=    30.00 Ry     beta= 0.70
     Davidson diagonalization with overlap
     ethr =  2.93E-07,  avg # of iterations =  2.6

     total cpu time spent up to now is       21.1 secs

     total energy              =     -74.16416767 Ry
     Harris-Foulkes estimate   =     -74.16416552 Ry
     estimated scf accuracy    <       0.00000599 Ry

     total magnetization       =     1.79 Bohr mag/cell
     absolute magnetization    =     1.97 Bohr mag/cell

     iteration #  7     ecut=    30.00 Ry     beta= 0.70
     Davidson diagonalization with overlap
     ethr =  6.66E-08,  avg # of iterations =  1.5

     total cpu time spent up to now is       23.8 secs

     total energy              =     -74.16416966 Ry
     Harris-Foulkes estimate   =     -74.16416946 Ry
     estimated scf accuracy    <       0.00000030 Ry

     total magnetization       =     1.79 Bohr mag/cell
     absolute magnetization    =     1.97 Bohr mag/cell

     iteration #  8     ecut=    30.00 Ry     beta= 0.70
     Davidson diagonalization with overlap
     ethr =  3.38E-09,  avg # of iterations =  2.1

     total cpu time spent up to now is       26.6 secs

     total energy              =     -74.16416976 Ry
     Harris-Foulkes estimate   =     -74.16416976 Ry
     estimated scf accuracy    <       0.00000002 Ry

     total magnetization       =     1.79 Bohr mag/cell
     absolute magnetization    =     1.97 Bohr mag/cell

     iteration #  9     ecut=    30.00 Ry     beta= 0.70
     Davidson diagonalization with overlap
     ethr =  1.80E-10,  avg # of iterations =  1.9

     Magnetic moment per site:
     atom:    1    charge:    7.8462    magn:    1.8673    constr:    0.0000

     total cpu time spent up to now is       29.3 secs

     End of self-consistent calculation

     Number of k-points >= 100: set verbosity='high' to print the bands.

     the Fermi energy is     9.3505 ev

!    total energy              =     -74.16416976 Ry
     Harris-Foulkes estimate   =     -74.16416976 Ry
     estimated scf accuracy    <          1.2E-10 Ry

     The total energy is the sum of the following terms:

     one-electron contribution =      -4.22693276 Ry
     hartree contribution      =      13.04225299 Ry
     xc contribution           =     -32.24631289 Ry
     ewald contribution        =     -50.73412951 Ry
     smearing contrib. (-TS)   =       0.00095241 Ry

     total magnetization       =     1.79 Bohr mag/cell
     absolute magnetization    =     1.97 Bohr mag/cell

     convergence has been achieved in   9 iterations

     Forces acting on atoms (cartesian axes, Ry/au):

     atom    1 type  1   force =     0.00000000    0.00000000    0.00000000

     Total force =     0.000000     Total SCF correction =     0.000000


     Computing stress (Cartesian axis) and pressure

          total   stress  (Ry/bohr**3)                   (kbar)     P= -411.08
  -0.00279445   0.00000000  -0.00000000       -411.08      0.00     -0.00
   0.00000000  -0.00279445   0.00000000          0.00   -411.08      0.00
   0.00000000   0.00000000  -0.00279445          0.00      0.00   -411.08


     Writing output data file Co.FCC.save/

     init_run     :      1.96s CPU      2.03s WALL (       1 calls)
     electrons    :     26.57s CPU     27.06s WALL (       1 calls)
     forces       :      0.33s CPU      0.33s WALL (       1 calls)
     stress       :      0.75s CPU      0.75s WALL (       1 calls)

     Called by init_run:
     wfcinit      :      0.92s CPU      0.95s WALL (       1 calls)
     potinit      :      0.05s CPU      0.05s WALL (       1 calls)
     hinit0       :      0.93s CPU      0.94s WALL (       1 calls)

     Called by electrons:
     c_bands      :     20.44s CPU     20.84s WALL (       9 calls)
     sum_band     :      5.34s CPU      5.41s WALL (       9 calls)
     v_of_rho     :      0.18s CPU      0.18s WALL (      10 calls)
     newd         :      0.60s CPU      0.63s WALL (      10 calls)
     mix_rho      :      0.05s CPU      0.05s WALL (       9 calls)

     Called by c_bands:
     init_us_2    :      0.46s CPU      0.47s WALL (    3024 calls)
     cegterg      :     19.73s CPU     20.12s WALL (    1296 calls)

     Called by sum_band:
     sum_band:bec :      0.04s CPU      0.05s WALL (    1296 calls)
     addusdens    :      1.09s CPU      1.09s WALL (       9 calls)

     Called by *egterg:
     h_psi        :     16.10s CPU     16.42s WALL (    4390 calls)
     s_psi        :      0.76s CPU      0.77s WALL (    4390 calls)
     g_psi        :      0.04s CPU      0.04s WALL (    2950 calls)
     cdiaghg      :      1.27s CPU      1.30s WALL (    4246 calls)

     Called by h_psi:
     h_psi:pot    :     16.07s CPU     16.38s WALL (    4390 calls)
     h_psi:calbec :      0.86s CPU      0.87s WALL (    4390 calls)
     vloc_psi     :     14.43s CPU     14.72s WALL (    4390 calls)
     add_vuspsi   :      0.75s CPU      0.77s WALL (    4390 calls)

     General routines
     calbec       :      1.36s CPU      1.38s WALL (    6406 calls)
     fft          :      0.14s CPU      0.14s WALL (     114 calls)
     ffts         :      0.03s CPU      0.03s WALL (      38 calls)
     fftw         :     16.14s CPU     16.48s WALL (   69970 calls)
     interpolate  :      0.05s CPU      0.05s WALL (      20 calls)

     Parallel routines

     PWSCF        :     29.95s CPU     30.54s WALL


   This run was terminated on:   9: 3:25  19Feb2020            

=------------------------------------------------------------------------------=
   JOB DONE.
=------------------------------------------------------------------------------=
