     Message from routine get_command_line:
     unexpected argument # 2     :-input

     Program PWSCF v.6.4.1 starts on 19Feb2020 at  8:48:40 

     This program is part of the open-source Quantum ESPRESSO suite
     for quantum simulation of materials; please cite
         "P. Giannozzi et al., J. Phys.:Condens. Matter 21 395502 (2009);
         "P. Giannozzi et al., J. Phys.:Condens. Matter 29 465901 (2017);
          URL http://www.quantum-espresso.org", 
     in publications or presentations arising from this work. More details at
     http://www.quantum-espresso.org/quote

     Parallel version (MPI), running on     1 processors

     MPI processes distributed on     1 nodes
     Waiting for input...
     Reading input from standard input
     Message from routine read_cards :
     DEPRECATED: no units specified in ATOMIC_POSITIONS card
     Message from routine read_cards :
     ATOMIC_POSITIONS: units set to alat

     Current dimensions of program PWSCF are:
     Max number of different atomic species (ntypx) = 10
     Max number of k-points (npk) =  40000
     Max angular momentum in pseudopotentials (lmaxx) =  3
               file Co.pz-nd-rrkjus.UPF: wavefunction(s)  4S 3D renormalized

     Subspace diagonalization in iterative solution of the eigenvalue problem:
     a serial algorithm will be used


     G-vector sticks info
     --------------------
     sticks:   dense  smooth     PW     G-vecs:    dense   smooth      PW
     Sum         253     121     55                 2733      941     259



     bravais-lattice index     =            2
     lattice parameter (alat)  =       5.4800  a.u.
     unit-cell volume          =      41.1416 (a.u.)^3
     number of atoms/cell      =            1
     number of atomic types    =            1
     number of electrons       =         9.00
     number of Kohn-Sham states=            9
     kinetic-energy cutoff     =      30.0000  Ry
     charge density cutoff     =     250.0000  Ry
     convergence threshold     =      1.0E-08
     mixing beta               =       0.7000
     number of iterations used =            8  plain     mixing
     Exchange-correlation      =  SLA  PZ   NOGX NOGC ( 1  1  0  0 0 0)

     celldm(1)=   5.480000  celldm(2)=   0.000000  celldm(3)=   0.000000
     celldm(4)=   0.000000  celldm(5)=   0.000000  celldm(6)=   0.000000

     crystal axes: (cart. coord. in units of alat)
               a(1) = (  -0.500000   0.000000   0.500000 )  
               a(2) = (   0.000000   0.500000   0.500000 )  
               a(3) = (  -0.500000   0.500000   0.000000 )  

     reciprocal axes: (cart. coord. in units 2 pi/alat)
               b(1) = ( -1.000000 -1.000000  1.000000 )  
               b(2) = (  1.000000  1.000000  1.000000 )  
               b(3) = ( -1.000000  1.000000 -1.000000 )  


     PseudoPot. # 1 for Co read from file:
     ./Co.pz-nd-rrkjus.UPF
     MD5 check sum: c80159f6ca3a93d3df3cfc6468bb3c3d
     Pseudo is Ultrasoft + core correction, Zval =  9.0
     Generated by new atomic code, or converted to UPF format
     Using radial grid of  961 points,  6 beta functions with: 
                l(1) =   0
                l(2) =   0
                l(3) =   1
                l(4) =   1
                l(5) =   2
                l(6) =   2
     Q(r) pseudized with 0 coefficients 


     atomic species   valence    mass     pseudopotential
        Co             9.00    58.93300     Co( 1.00)

     Starting magnetic structure 
     atomic species   magnetization
        Co           0.700

     48 Sym. Ops., with inversion, found



   Cartesian axes

     site n.     atom                  positions (alat units)
         1           Co  tau(   1) = (   0.0000000   0.0000000   0.0000000  )

     number of k points=    72  Marzari-Vanderbilt smearing, width (Ry)=  0.0300
                       cart. coord. in units 2pi/alat
        k(    1) = (   0.0000000   0.0000000   0.0000000), wk =   0.0005787
        k(    2) = (  -0.0833333   0.0833333  -0.0833333), wk =   0.0046296
        k(    3) = (  -0.1666667   0.1666667  -0.1666667), wk =   0.0046296
        k(    4) = (  -0.2500000   0.2500000  -0.2500000), wk =   0.0046296
        k(    5) = (  -0.3333333   0.3333333  -0.3333333), wk =   0.0046296
        k(    6) = (  -0.4166667   0.4166667  -0.4166667), wk =   0.0046296
        k(    7) = (   0.5000000  -0.5000000   0.5000000), wk =   0.0023148
        k(    8) = (   0.0000000   0.1666667   0.0000000), wk =   0.0034722
        k(    9) = (  -0.0833333   0.2500000  -0.0833333), wk =   0.0138889
        k(   10) = (  -0.1666667   0.3333333  -0.1666667), wk =   0.0138889
        k(   11) = (  -0.2500000   0.4166667  -0.2500000), wk =   0.0138889
        k(   12) = (  -0.3333333   0.5000000  -0.3333333), wk =   0.0138889
        k(   13) = (   0.5833333  -0.4166667   0.5833333), wk =   0.0138889
        k(   14) = (   0.5000000  -0.3333333   0.5000000), wk =   0.0138889
        k(   15) = (   0.4166667  -0.2500000   0.4166667), wk =   0.0138889
        k(   16) = (   0.3333333  -0.1666667   0.3333333), wk =   0.0138889
        k(   17) = (   0.2500000  -0.0833333   0.2500000), wk =   0.0138889
        k(   18) = (   0.1666667  -0.0000000   0.1666667), wk =   0.0069444
        k(   19) = (   0.0000000   0.3333333   0.0000000), wk =   0.0034722
        k(   20) = (  -0.0833333   0.4166667  -0.0833333), wk =   0.0138889
        k(   21) = (  -0.1666667   0.5000000  -0.1666667), wk =   0.0138889
        k(   22) = (  -0.2500000   0.5833333  -0.2500000), wk =   0.0138889
        k(   23) = (   0.6666667  -0.3333333   0.6666667), wk =   0.0138889
        k(   24) = (   0.5833333  -0.2500000   0.5833333), wk =   0.0138889
        k(   25) = (   0.5000000  -0.1666667   0.5000000), wk =   0.0138889
        k(   26) = (   0.4166667  -0.0833333   0.4166667), wk =   0.0138889
        k(   27) = (   0.3333333   0.0000000   0.3333333), wk =   0.0069444
        k(   28) = (   0.0000000   0.5000000   0.0000000), wk =   0.0034722
        k(   29) = (  -0.0833333   0.5833333  -0.0833333), wk =   0.0138889
        k(   30) = (  -0.1666667   0.6666667  -0.1666667), wk =   0.0138889
        k(   31) = (   0.7500000  -0.2500000   0.7500000), wk =   0.0138889
        k(   32) = (   0.6666667  -0.1666667   0.6666667), wk =   0.0138889
        k(   33) = (   0.5833333  -0.0833333   0.5833333), wk =   0.0138889
        k(   34) = (   0.5000000   0.0000000   0.5000000), wk =   0.0069444
        k(   35) = (   0.0000000   0.6666667   0.0000000), wk =   0.0034722
        k(   36) = (  -0.0833333   0.7500000  -0.0833333), wk =   0.0138889
        k(   37) = (   0.8333333  -0.1666667   0.8333333), wk =   0.0138889
        k(   38) = (   0.7500000  -0.0833333   0.7500000), wk =   0.0138889
        k(   39) = (   0.6666667  -0.0000000   0.6666667), wk =   0.0069444
        k(   40) = (   0.0000000   0.8333333   0.0000000), wk =   0.0034722
        k(   41) = (   0.9166667  -0.0833333   0.9166667), wk =   0.0138889
        k(   42) = (   0.8333333   0.0000000   0.8333333), wk =   0.0069444
        k(   43) = (   0.0000000  -1.0000000   0.0000000), wk =   0.0017361
        k(   44) = (  -0.1666667   0.3333333   0.0000000), wk =   0.0138889
        k(   45) = (  -0.2500000   0.4166667  -0.0833333), wk =   0.0277778
        k(   46) = (  -0.3333333   0.5000000  -0.1666667), wk =   0.0277778
        k(   47) = (   0.5833333  -0.4166667   0.7500000), wk =   0.0277778
        k(   48) = (   0.5000000  -0.3333333   0.6666667), wk =   0.0138889
        k(   49) = (  -0.1666667   0.5000000   0.0000000), wk =   0.0138889
        k(   50) = (  -0.2500000   0.5833333  -0.0833333), wk =   0.0277778
        k(   51) = (   0.6666667  -0.3333333   0.8333333), wk =   0.0277778
        k(   52) = (   0.5833333  -0.2500000   0.7500000), wk =   0.0277778
        k(   53) = (   0.5000000  -0.1666667   0.6666667), wk =   0.0277778
        k(   54) = (   0.4166667  -0.0833333   0.5833333), wk =   0.0277778
        k(   55) = (   0.3333333   0.0000000   0.5000000), wk =   0.0138889
        k(   56) = (  -0.1666667   0.6666667  -0.0000000), wk =   0.0138889
        k(   57) = (   0.7500000  -0.2500000   0.9166667), wk =   0.0277778
        k(   58) = (   0.6666667  -0.1666667   0.8333333), wk =   0.0277778
        k(   59) = (   0.5833333  -0.0833333   0.7500000), wk =   0.0277778
        k(   60) = (   0.5000000   0.0000000   0.6666667), wk =   0.0138889
        k(   61) = (   0.8333333  -0.1666667   1.0000000), wk =   0.0138889
        k(   62) = (   0.7500000  -0.0833333   0.9166667), wk =   0.0277778
        k(   63) = (   0.6666667   0.0000000   0.8333333), wk =   0.0138889
        k(   64) = (  -0.1666667  -1.0000000  -0.0000000), wk =   0.0069444
        k(   65) = (   0.6666667  -0.3333333   1.0000000), wk =   0.0138889
        k(   66) = (   0.5833333  -0.2500000   0.9166667), wk =   0.0277778
        k(   67) = (   0.5000000  -0.1666667   0.8333333), wk =   0.0138889
        k(   68) = (   0.6666667  -0.1666667   1.0000000), wk =   0.0138889
        k(   69) = (   0.5833333  -0.0833333   0.9166667), wk =   0.0277778
        k(   70) = (   0.5000000   0.0000000   0.8333333), wk =   0.0138889
        k(   71) = (  -0.3333333  -1.0000000   0.0000000), wk =   0.0069444
        k(   72) = (  -0.5000000  -1.0000000   0.0000000), wk =   0.0034722

     Dense  grid:     2733 G-vectors     FFT dimensions: (  20,  20,  20)

     Smooth grid:      941 G-vectors     FFT dimensions: (  15,  15,  15)

     Estimated max dynamical RAM per process >      14.67 MB
     Generating pointlists ...
     new r_m :   0.2917 (alat units)  1.5984 (a.u.) for type    1

     Initial potential from superposition of free atoms

     starting charge    8.99962, renormalised to    9.00000
     Starting wfcs are    6 randomized atomic wfcs +    3 random wfcs

     total cpu time spent up to now is        1.3 secs

     Self-consistent Calculation

     iteration #  1     ecut=    30.00 Ry     beta= 0.70
     Davidson diagonalization with overlap
     ethr =  1.00E-02,  avg # of iterations =  4.3

     total cpu time spent up to now is        2.6 secs

     total energy              =     -73.86003114 Ry
     Harris-Foulkes estimate   =     -73.69313483 Ry
     estimated scf accuracy    <       0.46419893 Ry

     total magnetization       =     1.86 Bohr mag/cell
     absolute magnetization    =     1.86 Bohr mag/cell

     iteration #  2     ecut=    30.00 Ry     beta= 0.70
     Davidson diagonalization with overlap
     ethr =  5.16E-03,  avg # of iterations =  1.4

     total cpu time spent up to now is        3.4 secs

     total energy              =     -73.94495438 Ry
     Harris-Foulkes estimate   =     -73.96227653 Ry
     estimated scf accuracy    <       0.12148041 Ry

     total magnetization       =     1.47 Bohr mag/cell
     absolute magnetization    =     1.50 Bohr mag/cell

     iteration #  3     ecut=    30.00 Ry     beta= 0.70
     Davidson diagonalization with overlap
     ethr =  1.35E-03,  avg # of iterations =  1.6

     total cpu time spent up to now is        4.1 secs

     total energy              =     -73.98783198 Ry
     Harris-Foulkes estimate   =     -73.98051299 Ry
     estimated scf accuracy    <       0.04383527 Ry

     total magnetization       =     1.10 Bohr mag/cell
     absolute magnetization    =     1.14 Bohr mag/cell

     iteration #  4     ecut=    30.00 Ry     beta= 0.70
     Davidson diagonalization with overlap
     ethr =  4.87E-04,  avg # of iterations =  1.0

     total cpu time spent up to now is        4.9 secs

     total energy              =     -74.00523068 Ry
     Harris-Foulkes estimate   =     -74.00292468 Ry
     estimated scf accuracy    <       0.00559519 Ry

     total magnetization       =     0.53 Bohr mag/cell
     absolute magnetization    =     0.59 Bohr mag/cell

     iteration #  5     ecut=    30.00 Ry     beta= 0.70
     Davidson diagonalization with overlap
     ethr =  6.22E-05,  avg # of iterations =  1.3

     total cpu time spent up to now is        5.8 secs

     total energy              =     -74.00772234 Ry
     Harris-Foulkes estimate   =     -74.00704228 Ry
     estimated scf accuracy    <       0.00296284 Ry

     total magnetization       =     0.30 Bohr mag/cell
     absolute magnetization    =     0.35 Bohr mag/cell

     iteration #  6     ecut=    30.00 Ry     beta= 0.70
     Davidson diagonalization with overlap
     ethr =  3.29E-05,  avg # of iterations =  1.1

     total cpu time spent up to now is        6.5 secs

     total energy              =     -73.99833694 Ry
     Harris-Foulkes estimate   =     -74.00780572 Ry
     estimated scf accuracy    <       0.00329341 Ry

     total magnetization       =     0.31 Bohr mag/cell
     absolute magnetization    =     0.34 Bohr mag/cell

     iteration #  7     ecut=    30.00 Ry     beta= 0.70
     Davidson diagonalization with overlap
     ethr =  3.29E-05,  avg # of iterations =  2.0

     total cpu time spent up to now is        7.4 secs

     total energy              =     -74.01001487 Ry
     Harris-Foulkes estimate   =     -74.00963841 Ry
     estimated scf accuracy    <       0.00115255 Ry

     total magnetization       =    -0.18 Bohr mag/cell
     absolute magnetization    =     0.19 Bohr mag/cell

     iteration #  8     ecut=    30.00 Ry     beta= 0.70
     Davidson diagonalization with overlap
     ethr =  1.28E-05,  avg # of iterations =  1.2

     total cpu time spent up to now is        8.1 secs

     total energy              =     -74.01090899 Ry
     Harris-Foulkes estimate   =     -74.01085967 Ry
     estimated scf accuracy    <       0.00009767 Ry

     total magnetization       =    -0.05 Bohr mag/cell
     absolute magnetization    =     0.05 Bohr mag/cell

     iteration #  9     ecut=    30.00 Ry     beta= 0.70
     Davidson diagonalization with overlap
     ethr =  1.09E-06,  avg # of iterations =  1.5

     total cpu time spent up to now is        8.9 secs

     total energy              =     -74.01094521 Ry
     Harris-Foulkes estimate   =     -74.01092555 Ry
     estimated scf accuracy    <       0.00003844 Ry

     total magnetization       =    -0.03 Bohr mag/cell
     absolute magnetization    =     0.03 Bohr mag/cell

     iteration # 10     ecut=    30.00 Ry     beta= 0.70
     Davidson diagonalization with overlap
     ethr =  4.27E-07,  avg # of iterations =  1.0

     total cpu time spent up to now is        9.6 secs

     total energy              =     -74.01095885 Ry
     Harris-Foulkes estimate   =     -74.01095059 Ry
     estimated scf accuracy    <       0.00001654 Ry

     total magnetization       =    -0.02 Bohr mag/cell
     absolute magnetization    =     0.02 Bohr mag/cell

     iteration # 11     ecut=    30.00 Ry     beta= 0.70
     Davidson diagonalization with overlap
     ethr =  1.84E-07,  avg # of iterations =  1.0

     total cpu time spent up to now is       10.4 secs

     total energy              =     -74.01096553 Ry
     Harris-Foulkes estimate   =     -74.01096408 Ry
     estimated scf accuracy    <       0.00000384 Ry

     total magnetization       =    -0.01 Bohr mag/cell
     absolute magnetization    =     0.01 Bohr mag/cell

     iteration # 12     ecut=    30.00 Ry     beta= 0.70
     Davidson diagonalization with overlap
     ethr =  4.27E-08,  avg # of iterations =  1.0

     total cpu time spent up to now is       11.2 secs

     total energy              =     -74.01096504 Ry
     Harris-Foulkes estimate   =     -74.01096669 Ry
     estimated scf accuracy    <       0.00000073 Ry

     total magnetization       =    -0.00 Bohr mag/cell
     absolute magnetization    =     0.00 Bohr mag/cell

     iteration # 13     ecut=    30.00 Ry     beta= 0.70
     Davidson diagonalization with overlap
     ethr =  8.13E-09,  avg # of iterations =  1.5

     total cpu time spent up to now is       12.0 secs

     total energy              =     -74.01096703 Ry
     Harris-Foulkes estimate   =     -74.01096703 Ry
     estimated scf accuracy    <       0.00000034 Ry

     total magnetization       =     0.00 Bohr mag/cell
     absolute magnetization    =     0.00 Bohr mag/cell

     iteration # 14     ecut=    30.00 Ry     beta= 0.70
     Davidson diagonalization with overlap
     ethr =  3.74E-09,  avg # of iterations =  1.3

     Magnetic moment per site:
     atom:    1    charge:    7.2915    magn:    0.0001    constr:    0.0000

     total cpu time spent up to now is       12.8 secs

     End of self-consistent calculation

     Number of k-points >= 100: set verbosity='high' to print the bands.

     the Fermi energy is    28.0755 ev

!    total energy              =     -74.01096733 Ry
     Harris-Foulkes estimate   =     -74.01096733 Ry
     estimated scf accuracy    <          8.6E-10 Ry

     The total energy is the sum of the following terms:

     one-electron contribution =      20.20230852 Ry
     hartree contribution      =       6.65251955 Ry
     xc contribution           =     -33.09740462 Ry
     ewald contribution        =     -67.76894672 Ry
     smearing contrib. (-TS)   =       0.00055594 Ry

     total magnetization       =     0.00 Bohr mag/cell
     absolute magnetization    =     0.00 Bohr mag/cell

     convergence has been achieved in  14 iterations

     Forces acting on atoms (cartesian axes, Ry/au):

     atom    1 type  1   force =     0.00000000    0.00000000    0.00000000

     Total force =     0.000000     Total SCF correction =     0.000000


     Computing stress (Cartesian axis) and pressure

          total   stress  (Ry/bohr**3)                   (kbar)     P= 3887.99
   0.02643002   0.00000000  -0.00000000       3887.99      0.00     -0.00
  -0.00000000   0.02643002   0.00000000         -0.00   3887.99      0.00
  -0.00000000   0.00000000   0.02643002         -0.00      0.00   3887.99


     Writing output data file Co.FCC.save/

     init_run     :      0.98s CPU      1.03s WALL (       1 calls)
     electrons    :     10.99s CPU     11.48s WALL (       1 calls)
     forces       :      0.16s CPU      0.16s WALL (       1 calls)
     stress       :      0.35s CPU      0.35s WALL (       1 calls)

     Called by init_run:
     wfcinit      :      0.20s CPU      0.22s WALL (       1 calls)
     potinit      :      0.01s CPU      0.01s WALL (       1 calls)
     hinit0       :      0.73s CPU      0.75s WALL (       1 calls)

     Called by electrons:
     c_bands      :      8.24s CPU      8.66s WALL (      14 calls)
     sum_band     :      2.25s CPU      2.32s WALL (      14 calls)
     v_of_rho     :      0.10s CPU      0.11s WALL (      15 calls)
     newd         :      0.41s CPU      0.41s WALL (      15 calls)
     mix_rho      :      0.01s CPU      0.02s WALL (      14 calls)

     Called by c_bands:
     init_us_2    :      0.44s CPU      0.46s WALL (    4464 calls)
     cegterg      :      7.61s CPU      7.99s WALL (    2016 calls)

     Called by sum_band:
     sum_band:bec :      0.07s CPU      0.08s WALL (    2016 calls)
     addusdens    :      0.75s CPU      0.76s WALL (      14 calls)

     Called by *egterg:
     h_psi        :      4.32s CPU      4.55s WALL (    5203 calls)
     s_psi        :      0.50s CPU      0.53s WALL (    5203 calls)
     g_psi        :      0.02s CPU      0.02s WALL (    3043 calls)
     cdiaghg      :      1.39s CPU      1.45s WALL (    5059 calls)

     Called by h_psi:
     h_psi:pot    :      4.29s CPU      4.51s WALL (    5203 calls)
     h_psi:calbec :      0.55s CPU      0.59s WALL (    5203 calls)
     vloc_psi     :      3.18s CPU      3.34s WALL (    5203 calls)
     add_vuspsi   :      0.51s CPU      0.56s WALL (    5203 calls)

     General routines
     calbec       :      0.86s CPU      0.90s WALL (    7939 calls)
     fft          :      0.01s CPU      0.01s WALL (     169 calls)
     ffts         :      0.00s CPU      0.00s WALL (      58 calls)
     fftw         :      2.41s CPU      2.53s WALL (   99016 calls)
     interpolate  :      0.01s CPU      0.01s WALL (      30 calls)

     Parallel routines

     PWSCF        :     12.83s CPU     13.40s WALL


   This run was terminated on:   8:48:53  19Feb2020            

=------------------------------------------------------------------------------=
   JOB DONE.
=------------------------------------------------------------------------------=
