     Message from routine get_command_line:
     unexpected argument # 2     :-input

     Program PWSCF v.6.4.1 starts on 19Feb2020 at  6:30: 7 

     This program is part of the open-source Quantum ESPRESSO suite
     for quantum simulation of materials; please cite
         "P. Giannozzi et al., J. Phys.:Condens. Matter 21 395502 (2009);
         "P. Giannozzi et al., J. Phys.:Condens. Matter 29 465901 (2017);
          URL http://www.quantum-espresso.org", 
     in publications or presentations arising from this work. More details at
     http://www.quantum-espresso.org/quote

     Parallel version (MPI), running on     1 processors

     MPI processes distributed on     1 nodes
     Waiting for input...
     Reading input from standard input
     Message from routine read_cards :
     DEPRECATED: no units specified in ATOMIC_POSITIONS card
     Message from routine read_cards :
     ATOMIC_POSITIONS: units set to alat

     Current dimensions of program PWSCF are:
     Max number of different atomic species (ntypx) = 10
     Max number of k-points (npk) =  40000
     Max angular momentum in pseudopotentials (lmaxx) =  3
               file Co.pz-nd-rrkjus.UPF: wavefunction(s)  4S 3D renormalized

     Subspace diagonalization in iterative solution of the eigenvalue problem:
     a serial algorithm will be used


     G-vector sticks info
     --------------------
     sticks:   dense  smooth     PW     G-vecs:    dense   smooth      PW
     Sum         313     163     61                 3839     1363     331



     bravais-lattice index     =            2
     lattice parameter (alat)  =       6.1800  a.u.
     unit-cell volume          =      59.0073 (a.u.)^3
     number of atoms/cell      =            1
     number of atomic types    =            1
     number of electrons       =         9.00
     number of Kohn-Sham states=            9
     kinetic-energy cutoff     =      30.0000  Ry
     charge density cutoff     =     250.0000  Ry
     convergence threshold     =      1.0E-08
     mixing beta               =       0.7000
     number of iterations used =            8  plain     mixing
     Exchange-correlation      =  SLA  PZ   NOGX NOGC ( 1  1  0  0 0 0)

     celldm(1)=   6.180000  celldm(2)=   0.000000  celldm(3)=   0.000000
     celldm(4)=   0.000000  celldm(5)=   0.000000  celldm(6)=   0.000000

     crystal axes: (cart. coord. in units of alat)
               a(1) = (  -0.500000   0.000000   0.500000 )  
               a(2) = (   0.000000   0.500000   0.500000 )  
               a(3) = (  -0.500000   0.500000   0.000000 )  

     reciprocal axes: (cart. coord. in units 2 pi/alat)
               b(1) = ( -1.000000 -1.000000  1.000000 )  
               b(2) = (  1.000000  1.000000  1.000000 )  
               b(3) = ( -1.000000  1.000000 -1.000000 )  


     PseudoPot. # 1 for Co read from file:
     ./Co.pz-nd-rrkjus.UPF
     MD5 check sum: c80159f6ca3a93d3df3cfc6468bb3c3d
     Pseudo is Ultrasoft + core correction, Zval =  9.0
     Generated by new atomic code, or converted to UPF format
     Using radial grid of  961 points,  6 beta functions with: 
                l(1) =   0
                l(2) =   0
                l(3) =   1
                l(4) =   1
                l(5) =   2
                l(6) =   2
     Q(r) pseudized with 0 coefficients 


     atomic species   valence    mass     pseudopotential
        Co             9.00    58.93300     Co( 1.00)

     Starting magnetic structure 
     atomic species   magnetization
        Co           0.700

     48 Sym. Ops., with inversion, found



   Cartesian axes

     site n.     atom                  positions (alat units)
         1           Co  tau(   1) = (   0.0000000   0.0000000   0.0000000  )

     number of k points=    72  Marzari-Vanderbilt smearing, width (Ry)=  0.0300
                       cart. coord. in units 2pi/alat
        k(    1) = (   0.0000000   0.0000000   0.0000000), wk =   0.0005787
        k(    2) = (  -0.0833333   0.0833333  -0.0833333), wk =   0.0046296
        k(    3) = (  -0.1666667   0.1666667  -0.1666667), wk =   0.0046296
        k(    4) = (  -0.2500000   0.2500000  -0.2500000), wk =   0.0046296
        k(    5) = (  -0.3333333   0.3333333  -0.3333333), wk =   0.0046296
        k(    6) = (  -0.4166667   0.4166667  -0.4166667), wk =   0.0046296
        k(    7) = (   0.5000000  -0.5000000   0.5000000), wk =   0.0023148
        k(    8) = (   0.0000000   0.1666667   0.0000000), wk =   0.0034722
        k(    9) = (  -0.0833333   0.2500000  -0.0833333), wk =   0.0138889
        k(   10) = (  -0.1666667   0.3333333  -0.1666667), wk =   0.0138889
        k(   11) = (  -0.2500000   0.4166667  -0.2500000), wk =   0.0138889
        k(   12) = (  -0.3333333   0.5000000  -0.3333333), wk =   0.0138889
        k(   13) = (   0.5833333  -0.4166667   0.5833333), wk =   0.0138889
        k(   14) = (   0.5000000  -0.3333333   0.5000000), wk =   0.0138889
        k(   15) = (   0.4166667  -0.2500000   0.4166667), wk =   0.0138889
        k(   16) = (   0.3333333  -0.1666667   0.3333333), wk =   0.0138889
        k(   17) = (   0.2500000  -0.0833333   0.2500000), wk =   0.0138889
        k(   18) = (   0.1666667  -0.0000000   0.1666667), wk =   0.0069444
        k(   19) = (   0.0000000   0.3333333   0.0000000), wk =   0.0034722
        k(   20) = (  -0.0833333   0.4166667  -0.0833333), wk =   0.0138889
        k(   21) = (  -0.1666667   0.5000000  -0.1666667), wk =   0.0138889
        k(   22) = (  -0.2500000   0.5833333  -0.2500000), wk =   0.0138889
        k(   23) = (   0.6666667  -0.3333333   0.6666667), wk =   0.0138889
        k(   24) = (   0.5833333  -0.2500000   0.5833333), wk =   0.0138889
        k(   25) = (   0.5000000  -0.1666667   0.5000000), wk =   0.0138889
        k(   26) = (   0.4166667  -0.0833333   0.4166667), wk =   0.0138889
        k(   27) = (   0.3333333   0.0000000   0.3333333), wk =   0.0069444
        k(   28) = (   0.0000000   0.5000000   0.0000000), wk =   0.0034722
        k(   29) = (  -0.0833333   0.5833333  -0.0833333), wk =   0.0138889
        k(   30) = (  -0.1666667   0.6666667  -0.1666667), wk =   0.0138889
        k(   31) = (   0.7500000  -0.2500000   0.7500000), wk =   0.0138889
        k(   32) = (   0.6666667  -0.1666667   0.6666667), wk =   0.0138889
        k(   33) = (   0.5833333  -0.0833333   0.5833333), wk =   0.0138889
        k(   34) = (   0.5000000   0.0000000   0.5000000), wk =   0.0069444
        k(   35) = (   0.0000000   0.6666667   0.0000000), wk =   0.0034722
        k(   36) = (  -0.0833333   0.7500000  -0.0833333), wk =   0.0138889
        k(   37) = (   0.8333333  -0.1666667   0.8333333), wk =   0.0138889
        k(   38) = (   0.7500000  -0.0833333   0.7500000), wk =   0.0138889
        k(   39) = (   0.6666667  -0.0000000   0.6666667), wk =   0.0069444
        k(   40) = (   0.0000000   0.8333333   0.0000000), wk =   0.0034722
        k(   41) = (   0.9166667  -0.0833333   0.9166667), wk =   0.0138889
        k(   42) = (   0.8333333   0.0000000   0.8333333), wk =   0.0069444
        k(   43) = (   0.0000000  -1.0000000   0.0000000), wk =   0.0017361
        k(   44) = (  -0.1666667   0.3333333   0.0000000), wk =   0.0138889
        k(   45) = (  -0.2500000   0.4166667  -0.0833333), wk =   0.0277778
        k(   46) = (  -0.3333333   0.5000000  -0.1666667), wk =   0.0277778
        k(   47) = (   0.5833333  -0.4166667   0.7500000), wk =   0.0277778
        k(   48) = (   0.5000000  -0.3333333   0.6666667), wk =   0.0138889
        k(   49) = (  -0.1666667   0.5000000   0.0000000), wk =   0.0138889
        k(   50) = (  -0.2500000   0.5833333  -0.0833333), wk =   0.0277778
        k(   51) = (   0.6666667  -0.3333333   0.8333333), wk =   0.0277778
        k(   52) = (   0.5833333  -0.2500000   0.7500000), wk =   0.0277778
        k(   53) = (   0.5000000  -0.1666667   0.6666667), wk =   0.0277778
        k(   54) = (   0.4166667  -0.0833333   0.5833333), wk =   0.0277778
        k(   55) = (   0.3333333   0.0000000   0.5000000), wk =   0.0138889
        k(   56) = (  -0.1666667   0.6666667  -0.0000000), wk =   0.0138889
        k(   57) = (   0.7500000  -0.2500000   0.9166667), wk =   0.0277778
        k(   58) = (   0.6666667  -0.1666667   0.8333333), wk =   0.0277778
        k(   59) = (   0.5833333  -0.0833333   0.7500000), wk =   0.0277778
        k(   60) = (   0.5000000   0.0000000   0.6666667), wk =   0.0138889
        k(   61) = (   0.8333333  -0.1666667   1.0000000), wk =   0.0138889
        k(   62) = (   0.7500000  -0.0833333   0.9166667), wk =   0.0277778
        k(   63) = (   0.6666667   0.0000000   0.8333333), wk =   0.0138889
        k(   64) = (  -0.1666667  -1.0000000  -0.0000000), wk =   0.0069444
        k(   65) = (   0.6666667  -0.3333333   1.0000000), wk =   0.0138889
        k(   66) = (   0.5833333  -0.2500000   0.9166667), wk =   0.0277778
        k(   67) = (   0.5000000  -0.1666667   0.8333333), wk =   0.0138889
        k(   68) = (   0.6666667  -0.1666667   1.0000000), wk =   0.0138889
        k(   69) = (   0.5833333  -0.0833333   0.9166667), wk =   0.0277778
        k(   70) = (   0.5000000   0.0000000   0.8333333), wk =   0.0138889
        k(   71) = (  -0.3333333  -1.0000000   0.0000000), wk =   0.0069444
        k(   72) = (  -0.5000000  -1.0000000   0.0000000), wk =   0.0034722

     Dense  grid:     3839 G-vectors     FFT dimensions: (  24,  24,  24)

     Smooth grid:     1363 G-vectors     FFT dimensions: (  15,  15,  15)

     Estimated max dynamical RAM per process >      20.65 MB
     Generating pointlists ...
     new r_m :   0.2917 (alat units)  1.8026 (a.u.) for type    1

     Check: negative core charge=   -0.000012

     Initial potential from superposition of free atoms

     starting charge    8.99962, renormalised to    9.00000
     Starting wfcs are    6 randomized atomic wfcs +    3 random wfcs

     total cpu time spent up to now is        1.4 secs

     Self-consistent Calculation

     iteration #  1     ecut=    30.00 Ry     beta= 0.70
     Davidson diagonalization with overlap
     ethr =  1.00E-02,  avg # of iterations =  4.3

     total cpu time spent up to now is        3.0 secs

     total energy              =     -73.98976349 Ry
     Harris-Foulkes estimate   =     -74.02602268 Ry
     estimated scf accuracy    <       0.54724269 Ry

     total magnetization       =     2.31 Bohr mag/cell
     absolute magnetization    =     2.31 Bohr mag/cell

     iteration #  2     ecut=    30.00 Ry     beta= 0.70
     Davidson diagonalization with overlap
     ethr =  6.08E-03,  avg # of iterations =  2.0

     total cpu time spent up to now is        3.9 secs

     total energy              =     -74.10260331 Ry
     Harris-Foulkes estimate   =     -74.26985928 Ry
     estimated scf accuracy    <       0.41440937 Ry

     total magnetization       =     1.67 Bohr mag/cell
     absolute magnetization    =     1.72 Bohr mag/cell

     iteration #  3     ecut=    30.00 Ry     beta= 0.70
     Davidson diagonalization with overlap
     ethr =  4.60E-03,  avg # of iterations =  1.3

     total cpu time spent up to now is        4.8 secs

     total energy              =     -74.20299597 Ry
     Harris-Foulkes estimate   =     -74.19088547 Ry
     estimated scf accuracy    <       0.02272769 Ry

     total magnetization       =     1.72 Bohr mag/cell
     absolute magnetization    =     1.79 Bohr mag/cell

     iteration #  4     ecut=    30.00 Ry     beta= 0.70
     Davidson diagonalization with overlap
     ethr =  2.53E-04,  avg # of iterations =  1.2

     total cpu time spent up to now is        5.6 secs

     total energy              =     -74.20943373 Ry
     Harris-Foulkes estimate   =     -74.20912348 Ry
     estimated scf accuracy    <       0.00082825 Ry

     total magnetization       =     1.42 Bohr mag/cell
     absolute magnetization    =     1.52 Bohr mag/cell

     iteration #  5     ecut=    30.00 Ry     beta= 0.70
     Davidson diagonalization with overlap
     ethr =  9.20E-06,  avg # of iterations =  2.5

     total cpu time spent up to now is        6.6 secs

     total energy              =     -74.20826258 Ry
     Harris-Foulkes estimate   =     -74.20979525 Ry
     estimated scf accuracy    <       0.00054520 Ry

     total magnetization       =     1.33 Bohr mag/cell
     absolute magnetization    =     1.42 Bohr mag/cell

     iteration #  6     ecut=    30.00 Ry     beta= 0.70
     Davidson diagonalization with overlap
     ethr =  6.06E-06,  avg # of iterations =  1.8

     total cpu time spent up to now is        7.6 secs

     total energy              =     -74.21077577 Ry
     Harris-Foulkes estimate   =     -74.21087522 Ry
     estimated scf accuracy    <       0.00032720 Ry

     total magnetization       =     1.03 Bohr mag/cell
     absolute magnetization    =     1.10 Bohr mag/cell

     iteration #  7     ecut=    30.00 Ry     beta= 0.70
     Davidson diagonalization with overlap
     ethr =  3.64E-06,  avg # of iterations =  1.3

     total cpu time spent up to now is        8.5 secs

     total energy              =     -74.20998111 Ry
     Harris-Foulkes estimate   =     -74.21087453 Ry
     estimated scf accuracy    <       0.00004991 Ry

     total magnetization       =     0.99 Bohr mag/cell
     absolute magnetization    =     1.05 Bohr mag/cell

     iteration #  8     ecut=    30.00 Ry     beta= 0.70
     Davidson diagonalization with overlap
     ethr =  5.55E-07,  avg # of iterations =  2.5

     total cpu time spent up to now is        9.6 secs

     total energy              =     -74.21111988 Ry
     Harris-Foulkes estimate   =     -74.21111939 Ry
     estimated scf accuracy    <       0.00003802 Ry

     total magnetization       =     0.78 Bohr mag/cell
     absolute magnetization    =     0.82 Bohr mag/cell

     iteration #  9     ecut=    30.00 Ry     beta= 0.70
     Davidson diagonalization with overlap
     ethr =  4.22E-07,  avg # of iterations =  1.0

     total cpu time spent up to now is       10.4 secs

     total energy              =     -74.21106320 Ry
     Harris-Foulkes estimate   =     -74.21112056 Ry
     estimated scf accuracy    <       0.00003807 Ry

     total magnetization       =     0.79 Bohr mag/cell
     absolute magnetization    =     0.83 Bohr mag/cell

     iteration # 10     ecut=    30.00 Ry     beta= 0.70
     Davidson diagonalization with overlap
     ethr =  4.22E-07,  avg # of iterations =  1.0

     total cpu time spent up to now is       11.2 secs

     total energy              =     -74.21020379 Ry
     Harris-Foulkes estimate   =     -74.21109598 Ry
     estimated scf accuracy    <       0.00005143 Ry

     total magnetization       =     0.82 Bohr mag/cell
     absolute magnetization    =     0.87 Bohr mag/cell

     iteration # 11     ecut=    30.00 Ry     beta= 0.70
     Davidson diagonalization with overlap
     ethr =  4.22E-07,  avg # of iterations =  2.3

     total cpu time spent up to now is       12.2 secs

     total energy              =     -74.21105946 Ry
     Harris-Foulkes estimate   =     -74.21118479 Ry
     estimated scf accuracy    <       0.00000689 Ry

     total magnetization       =     0.62 Bohr mag/cell
     absolute magnetization    =     0.65 Bohr mag/cell

     iteration # 12     ecut=    30.00 Ry     beta= 0.70
     Davidson diagonalization with overlap
     ethr =  7.65E-08,  avg # of iterations =  2.3

     total cpu time spent up to now is       13.3 secs

     total energy              =     -74.21119738 Ry
     Harris-Foulkes estimate   =     -74.21119810 Ry
     estimated scf accuracy    <       0.00000103 Ry

     total magnetization       =     0.54 Bohr mag/cell
     absolute magnetization    =     0.57 Bohr mag/cell

     iteration # 13     ecut=    30.00 Ry     beta= 0.70
     Davidson diagonalization with overlap
     ethr =  1.15E-08,  avg # of iterations =  1.2

     total cpu time spent up to now is       14.1 secs

     total energy              =     -74.21101358 Ry
     Harris-Foulkes estimate   =     -74.21119858 Ry
     estimated scf accuracy    <       0.00000093 Ry

     total magnetization       =     0.55 Bohr mag/cell
     absolute magnetization    =     0.58 Bohr mag/cell

     iteration # 14     ecut=    30.00 Ry     beta= 0.70
     Davidson diagonalization with overlap
     ethr =  1.03E-08,  avg # of iterations =  3.0

     total cpu time spent up to now is       15.3 secs

     total energy              =     -74.21110432 Ry
     Harris-Foulkes estimate   =     -74.21120533 Ry
     estimated scf accuracy    <       0.00000015 Ry

     total magnetization       =     0.46 Bohr mag/cell
     absolute magnetization    =     0.48 Bohr mag/cell

     iteration # 15     ecut=    30.00 Ry     beta= 0.70
     Davidson diagonalization with overlap
     ethr =  1.72E-09,  avg # of iterations =  3.5

     total cpu time spent up to now is       16.7 secs

     total energy              =     -74.21119124 Ry
     Harris-Foulkes estimate   =     -74.21120762 Ry
     estimated scf accuracy    <       0.00000007 Ry

     total magnetization       =     0.39 Bohr mag/cell
     absolute magnetization    =     0.41 Bohr mag/cell

     iteration # 16     ecut=    30.00 Ry     beta= 0.70
     Davidson diagonalization with overlap
     ethr =  7.73E-10,  avg # of iterations =  3.0

     total cpu time spent up to now is       18.0 secs

     total energy              =     -74.21119458 Ry
     Harris-Foulkes estimate   =     -74.21120757 Ry
     estimated scf accuracy    <       0.00000008 Ry

     total magnetization       =     0.42 Bohr mag/cell
     absolute magnetization    =     0.44 Bohr mag/cell

     iteration # 17     ecut=    30.00 Ry     beta= 0.70
     Davidson diagonalization with overlap
     ethr =  7.73E-10,  avg # of iterations =  3.0

     total cpu time spent up to now is       19.2 secs

     total energy              =     -74.21119326 Ry
     Harris-Foulkes estimate   =     -74.21120679 Ry
     estimated scf accuracy    <       0.00000019 Ry

     total magnetization       =     0.44 Bohr mag/cell
     absolute magnetization    =     0.47 Bohr mag/cell

     iteration # 18     ecut=    30.00 Ry     beta= 0.70
     Davidson diagonalization with overlap
     ethr =  7.73E-10,  avg # of iterations =  3.0

     total cpu time spent up to now is       20.5 secs

     total energy              =     -74.21120549 Ry
     Harris-Foulkes estimate   =     -74.21120574 Ry
     estimated scf accuracy    <       0.00000025 Ry

     total magnetization       =     0.47 Bohr mag/cell
     absolute magnetization    =     0.49 Bohr mag/cell

     iteration # 19     ecut=    30.00 Ry     beta= 0.70
     Davidson diagonalization with overlap
     ethr =  7.73E-10,  avg # of iterations =  1.3

     total cpu time spent up to now is       21.3 secs

     total energy              =     -74.21111859 Ry
     Harris-Foulkes estimate   =     -74.21120565 Ry
     estimated scf accuracy    <       0.00000027 Ry

     total magnetization       =     0.47 Bohr mag/cell
     absolute magnetization    =     0.49 Bohr mag/cell

     iteration # 20     ecut=    30.00 Ry     beta= 0.70
     Davidson diagonalization with overlap
     ethr =  7.73E-10,  avg # of iterations =  3.9

     total cpu time spent up to now is       22.7 secs

     total energy              =     -74.21118878 Ry
     Harris-Foulkes estimate   =     -74.21120774 Ry
     estimated scf accuracy    <       0.00000009 Ry

     total magnetization       =     0.41 Bohr mag/cell
     absolute magnetization    =     0.43 Bohr mag/cell

     iteration # 21     ecut=    30.00 Ry     beta= 0.70
     Davidson diagonalization with overlap
     ethr =  7.73E-10,  avg # of iterations =  3.0

     total cpu time spent up to now is       24.0 secs

     total energy              =     -74.21109809 Ry
     Harris-Foulkes estimate   =     -74.21120846 Ry
     estimated scf accuracy    <       0.00000005 Ry

     total magnetization       =     0.38 Bohr mag/cell
     absolute magnetization    =     0.40 Bohr mag/cell

     iteration # 22     ecut=    30.00 Ry     beta= 0.70
     Davidson diagonalization with overlap
     ethr =  5.82E-10,  avg # of iterations =  4.0

     total cpu time spent up to now is       25.4 secs

     total energy              =     -74.21120264 Ry
     Harris-Foulkes estimate   =     -74.21120911 Ry
     estimated scf accuracy    <       0.00000003 Ry

     total magnetization       =     0.31 Bohr mag/cell
     absolute magnetization    =     0.32 Bohr mag/cell

     iteration # 23     ecut=    30.00 Ry     beta= 0.70
     Davidson diagonalization with overlap
     ethr =  3.65E-10,  avg # of iterations =  3.0

     total cpu time spent up to now is       26.6 secs

     total energy              =     -74.21113487 Ry
     Harris-Foulkes estimate   =     -74.21120936 Ry
     estimated scf accuracy    <       0.00000005 Ry

     total magnetization       =     0.32 Bohr mag/cell
     absolute magnetization    =     0.34 Bohr mag/cell

     iteration # 24     ecut=    30.00 Ry     beta= 0.70
     Davidson diagonalization with overlap
     ethr =  3.65E-10,  avg # of iterations =  4.0

     total cpu time spent up to now is       28.1 secs

     total energy              =     -74.21119164 Ry
     Harris-Foulkes estimate   =     -74.21120973 Ry
     estimated scf accuracy    <       0.00000003 Ry

     total magnetization       =     0.27 Bohr mag/cell
     absolute magnetization    =     0.28 Bohr mag/cell

     iteration # 25     ecut=    30.00 Ry     beta= 0.70
     Davidson diagonalization with overlap
     ethr =  3.64E-10,  avg # of iterations =  3.4

     total cpu time spent up to now is       29.4 secs

     total energy              =     -74.21116618 Ry
     Harris-Foulkes estimate   =     -74.21121009 Ry
     estimated scf accuracy    <       0.00000003 Ry

     total magnetization       =     0.24 Bohr mag/cell
     absolute magnetization    =     0.25 Bohr mag/cell

     iteration # 26     ecut=    30.00 Ry     beta= 0.70
     Davidson diagonalization with overlap
     ethr =  3.58E-10,  avg # of iterations =  3.9

     total cpu time spent up to now is       30.9 secs

     total energy              =     -74.21120960 Ry
     Harris-Foulkes estimate   =     -74.21120975 Ry
     estimated scf accuracy    <       0.00000003 Ry

     total magnetization       =     0.28 Bohr mag/cell
     absolute magnetization    =     0.30 Bohr mag/cell

     iteration # 27     ecut=    30.00 Ry     beta= 0.70
     Davidson diagonalization with overlap
     ethr =  3.10E-10,  avg # of iterations =  1.8

     Magnetic moment per site:
     atom:    1    charge:    7.5228    magn:    0.2915    constr:    0.0000

     total cpu time spent up to now is       32.0 secs

     End of self-consistent calculation

     Number of k-points >= 100: set verbosity='high' to print the bands.

     the Fermi energy is    18.1684 ev

!    total energy              =     -74.21120977 Ry
     Harris-Foulkes estimate   =     -74.21120976 Ry
     estimated scf accuracy    <          2.6E-09 Ry

     The total energy is the sum of the following terms:

     one-electron contribution =       9.43084106 Ry
     hartree contribution      =       8.99609772 Ry
     xc contribution           =     -32.54430086 Ry
     ewald contribution        =     -60.09285243 Ry
     smearing contrib. (-TS)   =      -0.00099526 Ry

     total magnetization       =     0.28 Bohr mag/cell
     absolute magnetization    =     0.30 Bohr mag/cell

     convergence has been achieved in  27 iterations

     Forces acting on atoms (cartesian axes, Ry/au):

     atom    1 type  1   force =     0.00000000    0.00000000    0.00000000

     Total force =     0.000000     Total SCF correction =     0.000000


     Computing stress (Cartesian axis) and pressure

          total   stress  (Ry/bohr**3)                   (kbar)     P=  348.09
   0.00236626   0.00000000   0.00000000        348.09      0.00      0.00
   0.00000000   0.00236626   0.00000000          0.00    348.09      0.00
  -0.00000000  -0.00000000   0.00236626         -0.00     -0.00    348.09


     Writing output data file Co.FCC.save/

     init_run     :      1.14s CPU      1.18s WALL (       1 calls)
     electrons    :     29.47s CPU     30.52s WALL (       1 calls)
     forces       :      0.24s CPU      0.24s WALL (       1 calls)
     stress       :      0.47s CPU      0.47s WALL (       1 calls)

     Called by init_run:
     wfcinit      :      0.25s CPU      0.26s WALL (       1 calls)
     potinit      :      0.02s CPU      0.02s WALL (       1 calls)
     hinit0       :      0.83s CPU      0.85s WALL (       1 calls)

     Called by electrons:
     c_bands      :     23.16s CPU     24.06s WALL (      27 calls)
     sum_band     :      4.88s CPU      5.03s WALL (      27 calls)
     v_of_rho     :      0.32s CPU      0.32s WALL (      28 calls)
     newd         :      1.00s CPU      1.01s WALL (      28 calls)
     mix_rho      :      0.09s CPU      0.09s WALL (      27 calls)

     Called by c_bands:
     init_us_2    :      1.01s CPU      1.05s WALL (    8208 calls)
     cegterg      :     21.73s CPU     22.57s WALL (    3888 calls)

     Called by sum_band:
     sum_band:bec :      0.14s CPU      0.14s WALL (    3888 calls)
     addusdens    :      1.92s CPU      1.92s WALL (      27 calls)

     Called by *egterg:
     h_psi        :     10.43s CPU     10.84s WALL (   13857 calls)
     s_psi        :      1.53s CPU      1.59s WALL (   13857 calls)
     g_psi        :      0.09s CPU      0.09s WALL (    9825 calls)
     cdiaghg      :      4.41s CPU      4.58s WALL (   13713 calls)

     Called by h_psi:
     h_psi:pot    :     10.34s CPU     10.75s WALL (   13857 calls)
     h_psi:calbec :      1.68s CPU      1.74s WALL (   13857 calls)
     vloc_psi     :      7.06s CPU      7.34s WALL (   13857 calls)
     add_vuspsi   :      1.53s CPU      1.59s WALL (   13857 calls)

     General routines
     calbec       :      2.35s CPU      2.45s WALL (   18465 calls)
     fft          :      0.17s CPU      0.17s WALL (     312 calls)
     ffts         :      0.00s CPU      0.00s WALL (     110 calls)
     fftw         :      5.08s CPU      5.30s WALL (  224958 calls)
     interpolate  :      0.03s CPU      0.03s WALL (      56 calls)

     Parallel routines

     PWSCF        :     31.64s CPU     32.76s WALL


   This run was terminated on:   6:30:40  19Feb2020            

=------------------------------------------------------------------------------=
   JOB DONE.
=------------------------------------------------------------------------------=
