     Message from routine get_command_line:
     unexpected argument # 2     :-input

     Program PWSCF v.6.4.1 starts on 18Feb2020 at 20: 6:35 

     This program is part of the open-source Quantum ESPRESSO suite
     for quantum simulation of materials; please cite
         "P. Giannozzi et al., J. Phys.:Condens. Matter 21 395502 (2009);
         "P. Giannozzi et al., J. Phys.:Condens. Matter 29 465901 (2017);
          URL http://www.quantum-espresso.org", 
     in publications or presentations arising from this work. More details at
     http://www.quantum-espresso.org/quote

     Parallel version (MPI), running on     1 processors

     MPI processes distributed on     1 nodes
     Waiting for input...
     Reading input from standard input
     Message from routine read_cards :
     DEPRECATED: no units specified in ATOMIC_POSITIONS card
     Message from routine read_cards :
     ATOMIC_POSITIONS: units set to alat

     Current dimensions of program PWSCF are:
     Max number of different atomic species (ntypx) = 10
     Max number of k-points (npk) =  40000
     Max angular momentum in pseudopotentials (lmaxx) =  3
               file Co.pz-nd-rrkjus.UPF: wavefunction(s)  4S 3D renormalized

     Subspace diagonalization in iterative solution of the eigenvalue problem:
     a serial algorithm will be used


     G-vector sticks info
     --------------------
     sticks:   dense  smooth     PW     G-vecs:    dense   smooth      PW
     Sum         211     163     61                 2085     1459     339



     bravais-lattice index     =            2
     lattice parameter (alat)  =       6.4800  a.u.
     unit-cell volume          =      68.0244 (a.u.)^3
     number of atoms/cell      =            1
     number of atomic types    =            1
     number of electrons       =         9.00
     number of Kohn-Sham states=            9
     kinetic-energy cutoff     =      30.0000  Ry
     charge density cutoff     =     150.0000  Ry
     convergence threshold     =      1.0E-08
     mixing beta               =       0.7000
     number of iterations used =            8  plain     mixing
     Exchange-correlation      =  SLA  PZ   NOGX NOGC ( 1  1  0  0 0 0)

     celldm(1)=   6.480000  celldm(2)=   0.000000  celldm(3)=   0.000000
     celldm(4)=   0.000000  celldm(5)=   0.000000  celldm(6)=   0.000000

     crystal axes: (cart. coord. in units of alat)
               a(1) = (  -0.500000   0.000000   0.500000 )  
               a(2) = (   0.000000   0.500000   0.500000 )  
               a(3) = (  -0.500000   0.500000   0.000000 )  

     reciprocal axes: (cart. coord. in units 2 pi/alat)
               b(1) = ( -1.000000 -1.000000  1.000000 )  
               b(2) = (  1.000000  1.000000  1.000000 )  
               b(3) = ( -1.000000  1.000000 -1.000000 )  


     PseudoPot. # 1 for Co read from file:
     ./Co.pz-nd-rrkjus.UPF
     MD5 check sum: c80159f6ca3a93d3df3cfc6468bb3c3d
     Pseudo is Ultrasoft + core correction, Zval =  9.0
     Generated by new atomic code, or converted to UPF format
     Using radial grid of  961 points,  6 beta functions with: 
                l(1) =   0
                l(2) =   0
                l(3) =   1
                l(4) =   1
                l(5) =   2
                l(6) =   2
     Q(r) pseudized with 0 coefficients 


     atomic species   valence    mass     pseudopotential
        Co             9.00    58.93300     Co( 1.00)

     Starting magnetic structure 
     atomic species   magnetization
        Co           0.700

     48 Sym. Ops., with inversion, found



   Cartesian axes

     site n.     atom                  positions (alat units)
         1           Co  tau(   1) = (   0.0000000   0.0000000   0.0000000  )

     number of k points=    72  Marzari-Vanderbilt smearing, width (Ry)=  0.0300
                       cart. coord. in units 2pi/alat
        k(    1) = (   0.0000000   0.0000000   0.0000000), wk =   0.0005787
        k(    2) = (  -0.0833333   0.0833333  -0.0833333), wk =   0.0046296
        k(    3) = (  -0.1666667   0.1666667  -0.1666667), wk =   0.0046296
        k(    4) = (  -0.2500000   0.2500000  -0.2500000), wk =   0.0046296
        k(    5) = (  -0.3333333   0.3333333  -0.3333333), wk =   0.0046296
        k(    6) = (  -0.4166667   0.4166667  -0.4166667), wk =   0.0046296
        k(    7) = (   0.5000000  -0.5000000   0.5000000), wk =   0.0023148
        k(    8) = (   0.0000000   0.1666667   0.0000000), wk =   0.0034722
        k(    9) = (  -0.0833333   0.2500000  -0.0833333), wk =   0.0138889
        k(   10) = (  -0.1666667   0.3333333  -0.1666667), wk =   0.0138889
        k(   11) = (  -0.2500000   0.4166667  -0.2500000), wk =   0.0138889
        k(   12) = (  -0.3333333   0.5000000  -0.3333333), wk =   0.0138889
        k(   13) = (   0.5833333  -0.4166667   0.5833333), wk =   0.0138889
        k(   14) = (   0.5000000  -0.3333333   0.5000000), wk =   0.0138889
        k(   15) = (   0.4166667  -0.2500000   0.4166667), wk =   0.0138889
        k(   16) = (   0.3333333  -0.1666667   0.3333333), wk =   0.0138889
        k(   17) = (   0.2500000  -0.0833333   0.2500000), wk =   0.0138889
        k(   18) = (   0.1666667  -0.0000000   0.1666667), wk =   0.0069444
        k(   19) = (   0.0000000   0.3333333   0.0000000), wk =   0.0034722
        k(   20) = (  -0.0833333   0.4166667  -0.0833333), wk =   0.0138889
        k(   21) = (  -0.1666667   0.5000000  -0.1666667), wk =   0.0138889
        k(   22) = (  -0.2500000   0.5833333  -0.2500000), wk =   0.0138889
        k(   23) = (   0.6666667  -0.3333333   0.6666667), wk =   0.0138889
        k(   24) = (   0.5833333  -0.2500000   0.5833333), wk =   0.0138889
        k(   25) = (   0.5000000  -0.1666667   0.5000000), wk =   0.0138889
        k(   26) = (   0.4166667  -0.0833333   0.4166667), wk =   0.0138889
        k(   27) = (   0.3333333   0.0000000   0.3333333), wk =   0.0069444
        k(   28) = (   0.0000000   0.5000000   0.0000000), wk =   0.0034722
        k(   29) = (  -0.0833333   0.5833333  -0.0833333), wk =   0.0138889
        k(   30) = (  -0.1666667   0.6666667  -0.1666667), wk =   0.0138889
        k(   31) = (   0.7500000  -0.2500000   0.7500000), wk =   0.0138889
        k(   32) = (   0.6666667  -0.1666667   0.6666667), wk =   0.0138889
        k(   33) = (   0.5833333  -0.0833333   0.5833333), wk =   0.0138889
        k(   34) = (   0.5000000   0.0000000   0.5000000), wk =   0.0069444
        k(   35) = (   0.0000000   0.6666667   0.0000000), wk =   0.0034722
        k(   36) = (  -0.0833333   0.7500000  -0.0833333), wk =   0.0138889
        k(   37) = (   0.8333333  -0.1666667   0.8333333), wk =   0.0138889
        k(   38) = (   0.7500000  -0.0833333   0.7500000), wk =   0.0138889
        k(   39) = (   0.6666667  -0.0000000   0.6666667), wk =   0.0069444
        k(   40) = (   0.0000000   0.8333333   0.0000000), wk =   0.0034722
        k(   41) = (   0.9166667  -0.0833333   0.9166667), wk =   0.0138889
        k(   42) = (   0.8333333   0.0000000   0.8333333), wk =   0.0069444
        k(   43) = (   0.0000000  -1.0000000   0.0000000), wk =   0.0017361
        k(   44) = (  -0.1666667   0.3333333   0.0000000), wk =   0.0138889
        k(   45) = (  -0.2500000   0.4166667  -0.0833333), wk =   0.0277778
        k(   46) = (  -0.3333333   0.5000000  -0.1666667), wk =   0.0277778
        k(   47) = (   0.5833333  -0.4166667   0.7500000), wk =   0.0277778
        k(   48) = (   0.5000000  -0.3333333   0.6666667), wk =   0.0138889
        k(   49) = (  -0.1666667   0.5000000   0.0000000), wk =   0.0138889
        k(   50) = (  -0.2500000   0.5833333  -0.0833333), wk =   0.0277778
        k(   51) = (   0.6666667  -0.3333333   0.8333333), wk =   0.0277778
        k(   52) = (   0.5833333  -0.2500000   0.7500000), wk =   0.0277778
        k(   53) = (   0.5000000  -0.1666667   0.6666667), wk =   0.0277778
        k(   54) = (   0.4166667  -0.0833333   0.5833333), wk =   0.0277778
        k(   55) = (   0.3333333   0.0000000   0.5000000), wk =   0.0138889
        k(   56) = (  -0.1666667   0.6666667  -0.0000000), wk =   0.0138889
        k(   57) = (   0.7500000  -0.2500000   0.9166667), wk =   0.0277778
        k(   58) = (   0.6666667  -0.1666667   0.8333333), wk =   0.0277778
        k(   59) = (   0.5833333  -0.0833333   0.7500000), wk =   0.0277778
        k(   60) = (   0.5000000   0.0000000   0.6666667), wk =   0.0138889
        k(   61) = (   0.8333333  -0.1666667   1.0000000), wk =   0.0138889
        k(   62) = (   0.7500000  -0.0833333   0.9166667), wk =   0.0277778
        k(   63) = (   0.6666667   0.0000000   0.8333333), wk =   0.0138889
        k(   64) = (  -0.1666667  -1.0000000  -0.0000000), wk =   0.0069444
        k(   65) = (   0.6666667  -0.3333333   1.0000000), wk =   0.0138889
        k(   66) = (   0.5833333  -0.2500000   0.9166667), wk =   0.0277778
        k(   67) = (   0.5000000  -0.1666667   0.8333333), wk =   0.0138889
        k(   68) = (   0.6666667  -0.1666667   1.0000000), wk =   0.0138889
        k(   69) = (   0.5833333  -0.0833333   0.9166667), wk =   0.0277778
        k(   70) = (   0.5000000   0.0000000   0.8333333), wk =   0.0138889
        k(   71) = (  -0.3333333  -1.0000000   0.0000000), wk =   0.0069444
        k(   72) = (  -0.5000000  -1.0000000   0.0000000), wk =   0.0034722

     Dense  grid:     2085 G-vectors     FFT dimensions: (  18,  18,  18)

     Smooth grid:     1459 G-vectors     FFT dimensions: (  15,  15,  15)

     Estimated max dynamical RAM per process >      13.39 MB
     Generating pointlists ...
     new r_m :   0.2917 (alat units)  1.8901 (a.u.) for type    1

     Check: negative core charge=   -0.000025

     Initial potential from superposition of free atoms

     starting charge    8.99962, renormalised to    9.00000

     negative rho (up, down):  1.012E-03 0.000E+00
     Starting wfcs are    6 randomized atomic wfcs +    3 random wfcs

     total cpu time spent up to now is        1.2 secs

     Self-consistent Calculation

     iteration #  1     ecut=    30.00 Ry     beta= 0.70
     Davidson diagonalization with overlap
     ethr =  1.00E-02,  avg # of iterations =  4.3

     negative rho (up, down):  8.084E-04 0.000E+00

     total cpu time spent up to now is        2.7 secs

     total energy              =     -73.96692007 Ry
     Harris-Foulkes estimate   =     -74.07373890 Ry
     estimated scf accuracy    <       0.58375402 Ry

     total magnetization       =     2.46 Bohr mag/cell
     absolute magnetization    =     2.47 Bohr mag/cell

     iteration #  2     ecut=    30.00 Ry     beta= 0.70
     Davidson diagonalization with overlap
     ethr =  6.49E-03,  avg # of iterations =  2.0

     negative rho (up, down):  7.288E-04 0.000E+00

     total cpu time spent up to now is        3.7 secs

     total energy              =     -74.08027097 Ry
     Harris-Foulkes estimate   =     -74.33836929 Ry
     estimated scf accuracy    <       0.64031119 Ry

     total magnetization       =     1.66 Bohr mag/cell
     absolute magnetization    =     1.73 Bohr mag/cell

     iteration #  3     ecut=    30.00 Ry     beta= 0.70
     Davidson diagonalization with overlap
     ethr =  6.49E-03,  avg # of iterations =  1.2

     negative rho (up, down):  8.020E-04 0.000E+00

     total cpu time spent up to now is        4.4 secs

     total energy              =     -74.21808867 Ry
     Harris-Foulkes estimate   =     -74.20375122 Ry
     estimated scf accuracy    <       0.02122234 Ry

     total magnetization       =     1.81 Bohr mag/cell
     absolute magnetization    =     1.90 Bohr mag/cell

     iteration #  4     ecut=    30.00 Ry     beta= 0.70
     Davidson diagonalization with overlap
     ethr =  2.36E-04,  avg # of iterations =  1.7

     negative rho (up, down):  8.596E-04 0.000E+00

     total cpu time spent up to now is        5.3 secs

     total energy              =     -74.22342277 Ry
     Harris-Foulkes estimate   =     -74.22341175 Ry
     estimated scf accuracy    <       0.00021524 Ry

     total magnetization       =     1.62 Bohr mag/cell
     absolute magnetization    =     1.74 Bohr mag/cell

     iteration #  5     ecut=    30.00 Ry     beta= 0.70
     Davidson diagonalization with overlap
     ethr =  2.39E-06,  avg # of iterations =  3.2

     negative rho (up, down):  9.153E-04 0.000E+00

     total cpu time spent up to now is        6.5 secs

     total energy              =     -74.22362804 Ry
     Harris-Foulkes estimate   =     -74.22364690 Ry
     estimated scf accuracy    <       0.00006254 Ry

     total magnetization       =     1.62 Bohr mag/cell
     absolute magnetization    =     1.73 Bohr mag/cell

     iteration #  6     ecut=    30.00 Ry     beta= 0.70
     Davidson diagonalization with overlap
     ethr =  6.95E-07,  avg # of iterations =  1.5

     negative rho (up, down):  9.043E-04 0.000E+00

     total cpu time spent up to now is        7.4 secs

     total energy              =     -74.22365452 Ry
     Harris-Foulkes estimate   =     -74.22366950 Ry
     estimated scf accuracy    <       0.00003663 Ry

     total magnetization       =     1.61 Bohr mag/cell
     absolute magnetization    =     1.72 Bohr mag/cell

     iteration #  7     ecut=    30.00 Ry     beta= 0.70
     Davidson diagonalization with overlap
     ethr =  4.07E-07,  avg # of iterations =  1.3

     negative rho (up, down):  9.040E-04 0.000E+00

     total cpu time spent up to now is        8.2 secs

     total energy              =     -74.22366203 Ry
     Harris-Foulkes estimate   =     -74.22366194 Ry
     estimated scf accuracy    <       0.00000005 Ry

     total magnetization       =     1.61 Bohr mag/cell
     absolute magnetization    =     1.72 Bohr mag/cell

     iteration #  8     ecut=    30.00 Ry     beta= 0.70
     Davidson diagonalization with overlap
     ethr =  5.90E-10,  avg # of iterations =  3.1

     negative rho (up, down):  9.053E-04 0.000E+00

     total cpu time spent up to now is        9.3 secs

     total energy              =     -74.22366214 Ry
     Harris-Foulkes estimate   =     -74.22366214 Ry
     estimated scf accuracy    <       0.00000002 Ry

     total magnetization       =     1.61 Bohr mag/cell
     absolute magnetization    =     1.72 Bohr mag/cell

     iteration #  9     ecut=    30.00 Ry     beta= 0.70
     Davidson diagonalization with overlap
     ethr =  2.66E-10,  avg # of iterations =  1.0

     negative rho (up, down):  9.058E-04 0.000E+00

     Magnetic moment per site:
     atom:    1    charge:    7.6181    magn:    1.6603    constr:    0.0000

     total cpu time spent up to now is       10.1 secs

     End of self-consistent calculation

     Number of k-points >= 100: set verbosity='high' to print the bands.

     the Fermi energy is    15.2417 ev

!    total energy              =     -74.22366213 Ry
     Harris-Foulkes estimate   =     -74.22366214 Ry
     estimated scf accuracy    <          8.9E-09 Ry

     The total energy is the sum of the following terms:

     one-electron contribution =       5.46160526 Ry
     hartree contribution      =      10.10128449 Ry
     xc contribution           =     -32.47803820 Ry
     ewald contribution        =     -57.31077597 Ry
     smearing contrib. (-TS)   =       0.00226229 Ry

     total magnetization       =     1.61 Bohr mag/cell
     absolute magnetization    =     1.72 Bohr mag/cell

     convergence has been achieved in   9 iterations

     negative rho (up, down):  9.058E-04 0.000E+00

     Forces acting on atoms (cartesian axes, Ry/au):

     atom    1 type  1   force =     0.00000000    0.00000000    0.00000000

     Total force =     0.000000     Total SCF correction =     0.000000


     Computing stress (Cartesian axis) and pressure


     negative rho (up, down):  9.058E-04 0.000E+00
          total   stress  (Ry/bohr**3)                   (kbar)     P=    7.33
   0.00004981  -0.00000000  -0.00000000          7.33     -0.00     -0.00
  -0.00000000   0.00004981   0.00000000         -0.00      7.33      0.00
  -0.00000000   0.00000000   0.00004981         -0.00      0.00      7.33


     Writing output data file Co.FCC.save/

     init_run     :      0.96s CPU      0.99s WALL (       1 calls)
     electrons    :      8.54s CPU      8.84s WALL (       1 calls)
     forces       :      0.18s CPU      0.18s WALL (       1 calls)
     stress       :      0.42s CPU      0.42s WALL (       1 calls)

     Called by init_run:
     wfcinit      :      0.26s CPU      0.27s WALL (       1 calls)
     potinit      :      0.01s CPU      0.01s WALL (       1 calls)
     hinit0       :      0.67s CPU      0.68s WALL (       1 calls)

     Called by electrons:
     c_bands      :      6.97s CPU      7.23s WALL (       9 calls)
     sum_band     :      1.32s CPU      1.36s WALL (       9 calls)
     v_of_rho     :      0.05s CPU      0.05s WALL (      10 calls)
     newd         :      0.19s CPU      0.20s WALL (      10 calls)
     mix_rho      :      0.02s CPU      0.02s WALL (       9 calls)

     Called by c_bands:
     init_us_2    :      0.39s CPU      0.40s WALL (    3024 calls)
     cegterg      :      6.47s CPU      6.71s WALL (    1296 calls)

     Called by sum_band:
     sum_band:bec :      0.04s CPU      0.04s WALL (    1296 calls)
     addusdens    :      0.33s CPU      0.34s WALL (       9 calls)

     Called by *egterg:
     h_psi        :      3.26s CPU      3.38s WALL (    4212 calls)
     s_psi        :      0.51s CPU      0.53s WALL (    4212 calls)
     g_psi        :      0.03s CPU      0.03s WALL (    2772 calls)
     cdiaghg      :      1.16s CPU      1.20s WALL (    4068 calls)

     Called by h_psi:
     h_psi:pot    :      3.23s CPU      3.36s WALL (    4212 calls)
     h_psi:calbec :      0.58s CPU      0.60s WALL (    4212 calls)
     vloc_psi     :      2.12s CPU      2.20s WALL (    4212 calls)
     add_vuspsi   :      0.51s CPU      0.53s WALL (    4212 calls)

     General routines
     calbec       :      0.91s CPU      0.94s WALL (    6228 calls)
     fft          :      0.05s CPU      0.05s WALL (     114 calls)
     ffts         :      0.00s CPU      0.00s WALL (      38 calls)
     fftw         :      1.55s CPU      1.61s WALL (   71144 calls)
     interpolate  :      0.01s CPU      0.01s WALL (      20 calls)

     Parallel routines

     PWSCF        :     10.41s CPU     10.77s WALL


   This run was terminated on:  20: 6:45  18Feb2020            

=------------------------------------------------------------------------------=
   JOB DONE.
=------------------------------------------------------------------------------=
