     Message from routine get_command_line:
     unexpected argument # 2     :-input

     Program PWSCF v.6.4.1 starts on 18Feb2020 at 20: 6:46 

     This program is part of the open-source Quantum ESPRESSO suite
     for quantum simulation of materials; please cite
         "P. Giannozzi et al., J. Phys.:Condens. Matter 21 395502 (2009);
         "P. Giannozzi et al., J. Phys.:Condens. Matter 29 465901 (2017);
          URL http://www.quantum-espresso.org", 
     in publications or presentations arising from this work. More details at
     http://www.quantum-espresso.org/quote

     Parallel version (MPI), running on     1 processors

     MPI processes distributed on     1 nodes
     Waiting for input...
     Reading input from standard input
     Message from routine read_cards :
     DEPRECATED: no units specified in ATOMIC_POSITIONS card
     Message from routine read_cards :
     ATOMIC_POSITIONS: units set to alat

     Current dimensions of program PWSCF are:
     Max number of different atomic species (ntypx) = 10
     Max number of k-points (npk) =  40000
     Max angular momentum in pseudopotentials (lmaxx) =  3
               file Co.pz-nd-rrkjus.UPF: wavefunction(s)  4S 3D renormalized

     Subspace diagonalization in iterative solution of the eigenvalue problem:
     a serial algorithm will be used


     G-vector sticks info
     --------------------
     sticks:   dense  smooth     PW     G-vecs:    dense   smooth      PW
     Sum         295     235     85                 3287     2277     531



     bravais-lattice index     =            2
     lattice parameter (alat)  =       6.4800  a.u.
     unit-cell volume          =      68.0244 (a.u.)^3
     number of atoms/cell      =            1
     number of atomic types    =            1
     number of electrons       =         9.00
     number of Kohn-Sham states=            9
     kinetic-energy cutoff     =      40.0000  Ry
     charge density cutoff     =     200.0000  Ry
     convergence threshold     =      1.0E-08
     mixing beta               =       0.7000
     number of iterations used =            8  plain     mixing
     Exchange-correlation      =  SLA  PZ   NOGX NOGC ( 1  1  0  0 0 0)

     celldm(1)=   6.480000  celldm(2)=   0.000000  celldm(3)=   0.000000
     celldm(4)=   0.000000  celldm(5)=   0.000000  celldm(6)=   0.000000

     crystal axes: (cart. coord. in units of alat)
               a(1) = (  -0.500000   0.000000   0.500000 )  
               a(2) = (   0.000000   0.500000   0.500000 )  
               a(3) = (  -0.500000   0.500000   0.000000 )  

     reciprocal axes: (cart. coord. in units 2 pi/alat)
               b(1) = ( -1.000000 -1.000000  1.000000 )  
               b(2) = (  1.000000  1.000000  1.000000 )  
               b(3) = ( -1.000000  1.000000 -1.000000 )  


     PseudoPot. # 1 for Co read from file:
     ./Co.pz-nd-rrkjus.UPF
     MD5 check sum: c80159f6ca3a93d3df3cfc6468bb3c3d
     Pseudo is Ultrasoft + core correction, Zval =  9.0
     Generated by new atomic code, or converted to UPF format
     Using radial grid of  961 points,  6 beta functions with: 
                l(1) =   0
                l(2) =   0
                l(3) =   1
                l(4) =   1
                l(5) =   2
                l(6) =   2
     Q(r) pseudized with 0 coefficients 


     atomic species   valence    mass     pseudopotential
        Co             9.00    58.93300     Co( 1.00)

     Starting magnetic structure 
     atomic species   magnetization
        Co           0.700

     48 Sym. Ops., with inversion, found



   Cartesian axes

     site n.     atom                  positions (alat units)
         1           Co  tau(   1) = (   0.0000000   0.0000000   0.0000000  )

     number of k points=    72  Marzari-Vanderbilt smearing, width (Ry)=  0.0300
                       cart. coord. in units 2pi/alat
        k(    1) = (   0.0000000   0.0000000   0.0000000), wk =   0.0005787
        k(    2) = (  -0.0833333   0.0833333  -0.0833333), wk =   0.0046296
        k(    3) = (  -0.1666667   0.1666667  -0.1666667), wk =   0.0046296
        k(    4) = (  -0.2500000   0.2500000  -0.2500000), wk =   0.0046296
        k(    5) = (  -0.3333333   0.3333333  -0.3333333), wk =   0.0046296
        k(    6) = (  -0.4166667   0.4166667  -0.4166667), wk =   0.0046296
        k(    7) = (   0.5000000  -0.5000000   0.5000000), wk =   0.0023148
        k(    8) = (   0.0000000   0.1666667   0.0000000), wk =   0.0034722
        k(    9) = (  -0.0833333   0.2500000  -0.0833333), wk =   0.0138889
        k(   10) = (  -0.1666667   0.3333333  -0.1666667), wk =   0.0138889
        k(   11) = (  -0.2500000   0.4166667  -0.2500000), wk =   0.0138889
        k(   12) = (  -0.3333333   0.5000000  -0.3333333), wk =   0.0138889
        k(   13) = (   0.5833333  -0.4166667   0.5833333), wk =   0.0138889
        k(   14) = (   0.5000000  -0.3333333   0.5000000), wk =   0.0138889
        k(   15) = (   0.4166667  -0.2500000   0.4166667), wk =   0.0138889
        k(   16) = (   0.3333333  -0.1666667   0.3333333), wk =   0.0138889
        k(   17) = (   0.2500000  -0.0833333   0.2500000), wk =   0.0138889
        k(   18) = (   0.1666667  -0.0000000   0.1666667), wk =   0.0069444
        k(   19) = (   0.0000000   0.3333333   0.0000000), wk =   0.0034722
        k(   20) = (  -0.0833333   0.4166667  -0.0833333), wk =   0.0138889
        k(   21) = (  -0.1666667   0.5000000  -0.1666667), wk =   0.0138889
        k(   22) = (  -0.2500000   0.5833333  -0.2500000), wk =   0.0138889
        k(   23) = (   0.6666667  -0.3333333   0.6666667), wk =   0.0138889
        k(   24) = (   0.5833333  -0.2500000   0.5833333), wk =   0.0138889
        k(   25) = (   0.5000000  -0.1666667   0.5000000), wk =   0.0138889
        k(   26) = (   0.4166667  -0.0833333   0.4166667), wk =   0.0138889
        k(   27) = (   0.3333333   0.0000000   0.3333333), wk =   0.0069444
        k(   28) = (   0.0000000   0.5000000   0.0000000), wk =   0.0034722
        k(   29) = (  -0.0833333   0.5833333  -0.0833333), wk =   0.0138889
        k(   30) = (  -0.1666667   0.6666667  -0.1666667), wk =   0.0138889
        k(   31) = (   0.7500000  -0.2500000   0.7500000), wk =   0.0138889
        k(   32) = (   0.6666667  -0.1666667   0.6666667), wk =   0.0138889
        k(   33) = (   0.5833333  -0.0833333   0.5833333), wk =   0.0138889
        k(   34) = (   0.5000000   0.0000000   0.5000000), wk =   0.0069444
        k(   35) = (   0.0000000   0.6666667   0.0000000), wk =   0.0034722
        k(   36) = (  -0.0833333   0.7500000  -0.0833333), wk =   0.0138889
        k(   37) = (   0.8333333  -0.1666667   0.8333333), wk =   0.0138889
        k(   38) = (   0.7500000  -0.0833333   0.7500000), wk =   0.0138889
        k(   39) = (   0.6666667  -0.0000000   0.6666667), wk =   0.0069444
        k(   40) = (   0.0000000   0.8333333   0.0000000), wk =   0.0034722
        k(   41) = (   0.9166667  -0.0833333   0.9166667), wk =   0.0138889
        k(   42) = (   0.8333333   0.0000000   0.8333333), wk =   0.0069444
        k(   43) = (   0.0000000  -1.0000000   0.0000000), wk =   0.0017361
        k(   44) = (  -0.1666667   0.3333333   0.0000000), wk =   0.0138889
        k(   45) = (  -0.2500000   0.4166667  -0.0833333), wk =   0.0277778
        k(   46) = (  -0.3333333   0.5000000  -0.1666667), wk =   0.0277778
        k(   47) = (   0.5833333  -0.4166667   0.7500000), wk =   0.0277778
        k(   48) = (   0.5000000  -0.3333333   0.6666667), wk =   0.0138889
        k(   49) = (  -0.1666667   0.5000000   0.0000000), wk =   0.0138889
        k(   50) = (  -0.2500000   0.5833333  -0.0833333), wk =   0.0277778
        k(   51) = (   0.6666667  -0.3333333   0.8333333), wk =   0.0277778
        k(   52) = (   0.5833333  -0.2500000   0.7500000), wk =   0.0277778
        k(   53) = (   0.5000000  -0.1666667   0.6666667), wk =   0.0277778
        k(   54) = (   0.4166667  -0.0833333   0.5833333), wk =   0.0277778
        k(   55) = (   0.3333333   0.0000000   0.5000000), wk =   0.0138889
        k(   56) = (  -0.1666667   0.6666667  -0.0000000), wk =   0.0138889
        k(   57) = (   0.7500000  -0.2500000   0.9166667), wk =   0.0277778
        k(   58) = (   0.6666667  -0.1666667   0.8333333), wk =   0.0277778
        k(   59) = (   0.5833333  -0.0833333   0.7500000), wk =   0.0277778
        k(   60) = (   0.5000000   0.0000000   0.6666667), wk =   0.0138889
        k(   61) = (   0.8333333  -0.1666667   1.0000000), wk =   0.0138889
        k(   62) = (   0.7500000  -0.0833333   0.9166667), wk =   0.0277778
        k(   63) = (   0.6666667   0.0000000   0.8333333), wk =   0.0138889
        k(   64) = (  -0.1666667  -1.0000000  -0.0000000), wk =   0.0069444
        k(   65) = (   0.6666667  -0.3333333   1.0000000), wk =   0.0138889
        k(   66) = (   0.5833333  -0.2500000   0.9166667), wk =   0.0277778
        k(   67) = (   0.5000000  -0.1666667   0.8333333), wk =   0.0138889
        k(   68) = (   0.6666667  -0.1666667   1.0000000), wk =   0.0138889
        k(   69) = (   0.5833333  -0.0833333   0.9166667), wk =   0.0277778
        k(   70) = (   0.5000000   0.0000000   0.8333333), wk =   0.0138889
        k(   71) = (  -0.3333333  -1.0000000   0.0000000), wk =   0.0069444
        k(   72) = (  -0.5000000  -1.0000000   0.0000000), wk =   0.0034722

     Dense  grid:     3287 G-vectors     FFT dimensions: (  24,  24,  24)

     Smooth grid:     2277 G-vectors     FFT dimensions: (  20,  20,  20)

     Estimated max dynamical RAM per process >      21.04 MB
     Generating pointlists ...
     new r_m :   0.2917 (alat units)  1.8901 (a.u.) for type    1

     Check: negative core charge=   -0.000008

     Initial potential from superposition of free atoms

     starting charge    8.99962, renormalised to    9.00000
     Starting wfcs are    6 randomized atomic wfcs +    3 random wfcs

     total cpu time spent up to now is        1.6 secs

     Self-consistent Calculation

     iteration #  1     ecut=    40.00 Ry     beta= 0.70
     Davidson diagonalization with overlap
     ethr =  1.00E-02,  avg # of iterations =  4.4

     total cpu time spent up to now is        3.8 secs

     total energy              =     -73.96522441 Ry
     Harris-Foulkes estimate   =     -74.07506916 Ry
     estimated scf accuracy    <       0.58762356 Ry

     total magnetization       =     2.46 Bohr mag/cell
     absolute magnetization    =     2.46 Bohr mag/cell

     iteration #  2     ecut=    40.00 Ry     beta= 0.70
     Davidson diagonalization with overlap
     ethr =  6.53E-03,  avg # of iterations =  2.0

     total cpu time spent up to now is        5.4 secs

     total energy              =     -74.07928667 Ry
     Harris-Foulkes estimate   =     -74.34058213 Ry
     estimated scf accuracy    <       0.64738169 Ry

     total magnetization       =     1.66 Bohr mag/cell
     absolute magnetization    =     1.73 Bohr mag/cell

     iteration #  3     ecut=    40.00 Ry     beta= 0.70
     Davidson diagonalization with overlap
     ethr =  6.53E-03,  avg # of iterations =  1.1

     total cpu time spent up to now is        6.7 secs

     total energy              =     -74.21844435 Ry
     Harris-Foulkes estimate   =     -74.20411069 Ry
     estimated scf accuracy    <       0.02121312 Ry

     total magnetization       =     1.81 Bohr mag/cell
     absolute magnetization    =     1.90 Bohr mag/cell

     iteration #  4     ecut=    40.00 Ry     beta= 0.70
     Davidson diagonalization with overlap
     ethr =  2.36E-04,  avg # of iterations =  1.7

     total cpu time spent up to now is        8.0 secs

     total energy              =     -74.22383267 Ry
     Harris-Foulkes estimate   =     -74.22382216 Ry
     estimated scf accuracy    <       0.00020993 Ry

     total magnetization       =     1.62 Bohr mag/cell
     absolute magnetization    =     1.74 Bohr mag/cell

     iteration #  5     ecut=    40.00 Ry     beta= 0.70
     Davidson diagonalization with overlap
     ethr =  2.33E-06,  avg # of iterations =  3.3

     total cpu time spent up to now is       10.0 secs

     total energy              =     -74.22404039 Ry
     Harris-Foulkes estimate   =     -74.22405757 Ry
     estimated scf accuracy    <       0.00006078 Ry

     total magnetization       =     1.62 Bohr mag/cell
     absolute magnetization    =     1.73 Bohr mag/cell

     iteration #  6     ecut=    40.00 Ry     beta= 0.70
     Davidson diagonalization with overlap
     ethr =  6.75E-07,  avg # of iterations =  1.5

     total cpu time spent up to now is       11.3 secs

     total energy              =     -74.22406640 Ry
     Harris-Foulkes estimate   =     -74.22408208 Ry
     estimated scf accuracy    <       0.00003818 Ry

     total magnetization       =     1.61 Bohr mag/cell
     absolute magnetization    =     1.71 Bohr mag/cell

     iteration #  7     ecut=    40.00 Ry     beta= 0.70
     Davidson diagonalization with overlap
     ethr =  4.24E-07,  avg # of iterations =  1.2

     total cpu time spent up to now is       12.6 secs

     total energy              =     -74.22407411 Ry
     Harris-Foulkes estimate   =     -74.22407403 Ry
     estimated scf accuracy    <       0.00000005 Ry

     total magnetization       =     1.61 Bohr mag/cell
     absolute magnetization    =     1.71 Bohr mag/cell

     iteration #  8     ecut=    40.00 Ry     beta= 0.70
     Davidson diagonalization with overlap
     ethr =  5.26E-10,  avg # of iterations =  3.2

     total cpu time spent up to now is       14.5 secs

     total energy              =     -74.22407422 Ry
     Harris-Foulkes estimate   =     -74.22407423 Ry
     estimated scf accuracy    <       0.00000002 Ry

     total magnetization       =     1.61 Bohr mag/cell
     absolute magnetization    =     1.71 Bohr mag/cell

     iteration #  9     ecut=    40.00 Ry     beta= 0.70
     Davidson diagonalization with overlap
     ethr =  2.72E-10,  avg # of iterations =  1.0

     Magnetic moment per site:
     atom:    1    charge:    7.6159    magn:    1.6592    constr:    0.0000

     total cpu time spent up to now is       15.7 secs

     End of self-consistent calculation

     Number of k-points >= 100: set verbosity='high' to print the bands.

     the Fermi energy is    15.2331 ev

!    total energy              =     -74.22407422 Ry
     Harris-Foulkes estimate   =     -74.22407423 Ry
     estimated scf accuracy    <          7.8E-09 Ry

     The total energy is the sum of the following terms:

     one-electron contribution =       5.46110156 Ry
     hartree contribution      =      10.09717643 Ry
     xc contribution           =     -32.47384033 Ry
     ewald contribution        =     -57.31077600 Ry
     smearing contrib. (-TS)   =       0.00226412 Ry

     total magnetization       =     1.61 Bohr mag/cell
     absolute magnetization    =     1.71 Bohr mag/cell

     convergence has been achieved in   9 iterations

     Forces acting on atoms (cartesian axes, Ry/au):

     atom    1 type  1   force =     0.00000000    0.00000000    0.00000000

     Total force =     0.000000     Total SCF correction =     0.000000


     Computing stress (Cartesian axis) and pressure

          total   stress  (Ry/bohr**3)                   (kbar)     P=   -7.60
  -0.00005164  -0.00000000   0.00000000         -7.60     -0.00      0.00
  -0.00000000  -0.00005164   0.00000000         -0.00     -7.60      0.00
   0.00000000   0.00000000  -0.00005164          0.00      0.00     -7.60


     Writing output data file Co.FCC.save/

     init_run     :      1.29s CPU      1.34s WALL (       1 calls)
     electrons    :     13.80s CPU     14.09s WALL (       1 calls)
     forces       :      0.26s CPU      0.27s WALL (       1 calls)
     stress       :      0.62s CPU      0.62s WALL (       1 calls)

     Called by init_run:
     wfcinit      :      0.44s CPU      0.46s WALL (       1 calls)
     potinit      :      0.02s CPU      0.02s WALL (       1 calls)
     hinit0       :      0.80s CPU      0.81s WALL (       1 calls)

     Called by electrons:
     c_bands      :     11.15s CPU     11.42s WALL (       9 calls)
     sum_band     :      2.23s CPU      2.26s WALL (       9 calls)
     v_of_rho     :      0.11s CPU      0.11s WALL (      10 calls)
     newd         :      0.30s CPU      0.31s WALL (      10 calls)
     mix_rho      :      0.02s CPU      0.02s WALL (       9 calls)

     Called by c_bands:
     init_us_2    :      0.46s CPU      0.47s WALL (    3024 calls)
     cegterg      :     10.45s CPU     10.71s WALL (    1296 calls)

     Called by sum_band:
     sum_band:bec :      0.04s CPU      0.04s WALL (    1296 calls)
     addusdens    :      0.53s CPU      0.53s WALL (       9 calls)

     Called by *egterg:
     h_psi        :      6.12s CPU      6.28s WALL (    4252 calls)
     s_psi        :      0.79s CPU      0.81s WALL (    4252 calls)
     g_psi        :      0.04s CPU      0.04s WALL (    2812 calls)
     cdiaghg      :      1.25s CPU      1.28s WALL (    4108 calls)

     Called by h_psi:
     h_psi:pot    :      6.09s CPU      6.24s WALL (    4252 calls)
     h_psi:calbec :      0.90s CPU      0.92s WALL (    4252 calls)
     vloc_psi     :      4.37s CPU      4.48s WALL (    4252 calls)
     add_vuspsi   :      0.80s CPU      0.82s WALL (    4252 calls)

     General routines
     calbec       :      1.41s CPU      1.44s WALL (    6268 calls)
     fft          :      0.07s CPU      0.07s WALL (     114 calls)
     ffts         :      0.00s CPU      0.00s WALL (      38 calls)
     fftw         :      3.03s CPU      3.10s WALL (   71272 calls)
     interpolate  :      0.01s CPU      0.01s WALL (      20 calls)

     Parallel routines

     PWSCF        :     16.29s CPU     16.69s WALL


   This run was terminated on:  20: 7: 2  18Feb2020            

=------------------------------------------------------------------------------=
   JOB DONE.
=------------------------------------------------------------------------------=
