     Message from routine get_command_line:
     unexpected argument # 2     :-input

     Program PWSCF v.6.4.1 starts on 19Feb2020 at  6:29:43 

     This program is part of the open-source Quantum ESPRESSO suite
     for quantum simulation of materials; please cite
         "P. Giannozzi et al., J. Phys.:Condens. Matter 21 395502 (2009);
         "P. Giannozzi et al., J. Phys.:Condens. Matter 29 465901 (2017);
          URL http://www.quantum-espresso.org", 
     in publications or presentations arising from this work. More details at
     http://www.quantum-espresso.org/quote

     Parallel version (MPI), running on     1 processors

     MPI processes distributed on     1 nodes
     Waiting for input...
     Reading input from standard input
     Message from routine read_cards :
     DEPRECATED: no units specified in ATOMIC_POSITIONS card
     Message from routine read_cards :
     ATOMIC_POSITIONS: units set to alat

     Current dimensions of program PWSCF are:
     Max number of different atomic species (ntypx) = 10
     Max number of k-points (npk) =  40000
     Max angular momentum in pseudopotentials (lmaxx) =  3
               file Co.pz-nd-rrkjus.UPF: wavefunction(s)  4S 3D renormalized

     Subspace diagonalization in iterative solution of the eigenvalue problem:
     a serial algorithm will be used


     G-vector sticks info
     --------------------
     sticks:   dense  smooth     PW     G-vecs:    dense   smooth      PW
     Sum         313     163     61                 3839     1291     331



     bravais-lattice index     =            2
     lattice parameter (alat)  =       6.1600  a.u.
     unit-cell volume          =      58.4362 (a.u.)^3
     number of atoms/cell      =            1
     number of atomic types    =            1
     number of electrons       =         9.00
     number of Kohn-Sham states=            9
     kinetic-energy cutoff     =      30.0000  Ry
     charge density cutoff     =     250.0000  Ry
     convergence threshold     =      1.0E-08
     mixing beta               =       0.7000
     number of iterations used =            8  plain     mixing
     Exchange-correlation      =  SLA  PZ   NOGX NOGC ( 1  1  0  0 0 0)

     celldm(1)=   6.160000  celldm(2)=   0.000000  celldm(3)=   0.000000
     celldm(4)=   0.000000  celldm(5)=   0.000000  celldm(6)=   0.000000

     crystal axes: (cart. coord. in units of alat)
               a(1) = (  -0.500000   0.000000   0.500000 )  
               a(2) = (   0.000000   0.500000   0.500000 )  
               a(3) = (  -0.500000   0.500000   0.000000 )  

     reciprocal axes: (cart. coord. in units 2 pi/alat)
               b(1) = ( -1.000000 -1.000000  1.000000 )  
               b(2) = (  1.000000  1.000000  1.000000 )  
               b(3) = ( -1.000000  1.000000 -1.000000 )  


     PseudoPot. # 1 for Co read from file:
     ./Co.pz-nd-rrkjus.UPF
     MD5 check sum: c80159f6ca3a93d3df3cfc6468bb3c3d
     Pseudo is Ultrasoft + core correction, Zval =  9.0
     Generated by new atomic code, or converted to UPF format
     Using radial grid of  961 points,  6 beta functions with: 
                l(1) =   0
                l(2) =   0
                l(3) =   1
                l(4) =   1
                l(5) =   2
                l(6) =   2
     Q(r) pseudized with 0 coefficients 


     atomic species   valence    mass     pseudopotential
        Co             9.00    58.93300     Co( 1.00)

     Starting magnetic structure 
     atomic species   magnetization
        Co           0.700

     48 Sym. Ops., with inversion, found



   Cartesian axes

     site n.     atom                  positions (alat units)
         1           Co  tau(   1) = (   0.0000000   0.0000000   0.0000000  )

     number of k points=    72  Marzari-Vanderbilt smearing, width (Ry)=  0.0300
                       cart. coord. in units 2pi/alat
        k(    1) = (   0.0000000   0.0000000   0.0000000), wk =   0.0005787
        k(    2) = (  -0.0833333   0.0833333  -0.0833333), wk =   0.0046296
        k(    3) = (  -0.1666667   0.1666667  -0.1666667), wk =   0.0046296
        k(    4) = (  -0.2500000   0.2500000  -0.2500000), wk =   0.0046296
        k(    5) = (  -0.3333333   0.3333333  -0.3333333), wk =   0.0046296
        k(    6) = (  -0.4166667   0.4166667  -0.4166667), wk =   0.0046296
        k(    7) = (   0.5000000  -0.5000000   0.5000000), wk =   0.0023148
        k(    8) = (   0.0000000   0.1666667   0.0000000), wk =   0.0034722
        k(    9) = (  -0.0833333   0.2500000  -0.0833333), wk =   0.0138889
        k(   10) = (  -0.1666667   0.3333333  -0.1666667), wk =   0.0138889
        k(   11) = (  -0.2500000   0.4166667  -0.2500000), wk =   0.0138889
        k(   12) = (  -0.3333333   0.5000000  -0.3333333), wk =   0.0138889
        k(   13) = (   0.5833333  -0.4166667   0.5833333), wk =   0.0138889
        k(   14) = (   0.5000000  -0.3333333   0.5000000), wk =   0.0138889
        k(   15) = (   0.4166667  -0.2500000   0.4166667), wk =   0.0138889
        k(   16) = (   0.3333333  -0.1666667   0.3333333), wk =   0.0138889
        k(   17) = (   0.2500000  -0.0833333   0.2500000), wk =   0.0138889
        k(   18) = (   0.1666667  -0.0000000   0.1666667), wk =   0.0069444
        k(   19) = (   0.0000000   0.3333333   0.0000000), wk =   0.0034722
        k(   20) = (  -0.0833333   0.4166667  -0.0833333), wk =   0.0138889
        k(   21) = (  -0.1666667   0.5000000  -0.1666667), wk =   0.0138889
        k(   22) = (  -0.2500000   0.5833333  -0.2500000), wk =   0.0138889
        k(   23) = (   0.6666667  -0.3333333   0.6666667), wk =   0.0138889
        k(   24) = (   0.5833333  -0.2500000   0.5833333), wk =   0.0138889
        k(   25) = (   0.5000000  -0.1666667   0.5000000), wk =   0.0138889
        k(   26) = (   0.4166667  -0.0833333   0.4166667), wk =   0.0138889
        k(   27) = (   0.3333333   0.0000000   0.3333333), wk =   0.0069444
        k(   28) = (   0.0000000   0.5000000   0.0000000), wk =   0.0034722
        k(   29) = (  -0.0833333   0.5833333  -0.0833333), wk =   0.0138889
        k(   30) = (  -0.1666667   0.6666667  -0.1666667), wk =   0.0138889
        k(   31) = (   0.7500000  -0.2500000   0.7500000), wk =   0.0138889
        k(   32) = (   0.6666667  -0.1666667   0.6666667), wk =   0.0138889
        k(   33) = (   0.5833333  -0.0833333   0.5833333), wk =   0.0138889
        k(   34) = (   0.5000000   0.0000000   0.5000000), wk =   0.0069444
        k(   35) = (   0.0000000   0.6666667   0.0000000), wk =   0.0034722
        k(   36) = (  -0.0833333   0.7500000  -0.0833333), wk =   0.0138889
        k(   37) = (   0.8333333  -0.1666667   0.8333333), wk =   0.0138889
        k(   38) = (   0.7500000  -0.0833333   0.7500000), wk =   0.0138889
        k(   39) = (   0.6666667  -0.0000000   0.6666667), wk =   0.0069444
        k(   40) = (   0.0000000   0.8333333   0.0000000), wk =   0.0034722
        k(   41) = (   0.9166667  -0.0833333   0.9166667), wk =   0.0138889
        k(   42) = (   0.8333333   0.0000000   0.8333333), wk =   0.0069444
        k(   43) = (   0.0000000  -1.0000000   0.0000000), wk =   0.0017361
        k(   44) = (  -0.1666667   0.3333333   0.0000000), wk =   0.0138889
        k(   45) = (  -0.2500000   0.4166667  -0.0833333), wk =   0.0277778
        k(   46) = (  -0.3333333   0.5000000  -0.1666667), wk =   0.0277778
        k(   47) = (   0.5833333  -0.4166667   0.7500000), wk =   0.0277778
        k(   48) = (   0.5000000  -0.3333333   0.6666667), wk =   0.0138889
        k(   49) = (  -0.1666667   0.5000000   0.0000000), wk =   0.0138889
        k(   50) = (  -0.2500000   0.5833333  -0.0833333), wk =   0.0277778
        k(   51) = (   0.6666667  -0.3333333   0.8333333), wk =   0.0277778
        k(   52) = (   0.5833333  -0.2500000   0.7500000), wk =   0.0277778
        k(   53) = (   0.5000000  -0.1666667   0.6666667), wk =   0.0277778
        k(   54) = (   0.4166667  -0.0833333   0.5833333), wk =   0.0277778
        k(   55) = (   0.3333333   0.0000000   0.5000000), wk =   0.0138889
        k(   56) = (  -0.1666667   0.6666667  -0.0000000), wk =   0.0138889
        k(   57) = (   0.7500000  -0.2500000   0.9166667), wk =   0.0277778
        k(   58) = (   0.6666667  -0.1666667   0.8333333), wk =   0.0277778
        k(   59) = (   0.5833333  -0.0833333   0.7500000), wk =   0.0277778
        k(   60) = (   0.5000000   0.0000000   0.6666667), wk =   0.0138889
        k(   61) = (   0.8333333  -0.1666667   1.0000000), wk =   0.0138889
        k(   62) = (   0.7500000  -0.0833333   0.9166667), wk =   0.0277778
        k(   63) = (   0.6666667   0.0000000   0.8333333), wk =   0.0138889
        k(   64) = (  -0.1666667  -1.0000000  -0.0000000), wk =   0.0069444
        k(   65) = (   0.6666667  -0.3333333   1.0000000), wk =   0.0138889
        k(   66) = (   0.5833333  -0.2500000   0.9166667), wk =   0.0277778
        k(   67) = (   0.5000000  -0.1666667   0.8333333), wk =   0.0138889
        k(   68) = (   0.6666667  -0.1666667   1.0000000), wk =   0.0138889
        k(   69) = (   0.5833333  -0.0833333   0.9166667), wk =   0.0277778
        k(   70) = (   0.5000000   0.0000000   0.8333333), wk =   0.0138889
        k(   71) = (  -0.3333333  -1.0000000   0.0000000), wk =   0.0069444
        k(   72) = (  -0.5000000  -1.0000000   0.0000000), wk =   0.0034722

     Dense  grid:     3839 G-vectors     FFT dimensions: (  24,  24,  24)

     Smooth grid:     1291 G-vectors     FFT dimensions: (  15,  15,  15)

     Estimated max dynamical RAM per process >      20.60 MB
     Generating pointlists ...
     new r_m :   0.2917 (alat units)  1.7968 (a.u.) for type    1

     Check: negative core charge=   -0.000011

     Initial potential from superposition of free atoms

     starting charge    8.99962, renormalised to    9.00000
     Starting wfcs are    6 randomized atomic wfcs +    3 random wfcs

     total cpu time spent up to now is        1.4 secs

     Self-consistent Calculation

     iteration #  1     ecut=    30.00 Ry     beta= 0.70
     Davidson diagonalization with overlap
     ethr =  1.00E-02,  avg # of iterations =  4.3

     total cpu time spent up to now is        2.9 secs

     total energy              =     -73.98948512 Ry
     Harris-Foulkes estimate   =     -74.02145178 Ry
     estimated scf accuracy    <       0.54419332 Ry

     total magnetization       =     2.30 Bohr mag/cell
     absolute magnetization    =     2.30 Bohr mag/cell

     iteration #  2     ecut=    30.00 Ry     beta= 0.70
     Davidson diagonalization with overlap
     ethr =  6.05E-03,  avg # of iterations =  2.0

     total cpu time spent up to now is        3.9 secs

     total energy              =     -74.10267837 Ry
     Harris-Foulkes estimate   =     -74.26448732 Ry
     estimated scf accuracy    <       0.40245622 Ry

     total magnetization       =     1.67 Bohr mag/cell
     absolute magnetization    =     1.72 Bohr mag/cell

     iteration #  3     ecut=    30.00 Ry     beta= 0.70
     Davidson diagonalization with overlap
     ethr =  4.47E-03,  avg # of iterations =  1.3

     total cpu time spent up to now is        4.7 secs

     total energy              =     -74.20093841 Ry
     Harris-Foulkes estimate   =     -74.18882050 Ry
     estimated scf accuracy    <       0.02294287 Ry

     total magnetization       =     1.71 Bohr mag/cell
     absolute magnetization    =     1.78 Bohr mag/cell

     iteration #  4     ecut=    30.00 Ry     beta= 0.70
     Davidson diagonalization with overlap
     ethr =  2.55E-04,  avg # of iterations =  1.2

     total cpu time spent up to now is        5.5 secs

     total energy              =     -74.20752742 Ry
     Harris-Foulkes estimate   =     -74.20717054 Ry
     estimated scf accuracy    <       0.00095005 Ry

     total magnetization       =     1.40 Bohr mag/cell
     absolute magnetization    =     1.50 Bohr mag/cell

     iteration #  5     ecut=    30.00 Ry     beta= 0.70
     Davidson diagonalization with overlap
     ethr =  1.06E-05,  avg # of iterations =  2.3

     total cpu time spent up to now is        6.5 secs

     total energy              =     -74.20579569 Ry
     Harris-Foulkes estimate   =     -74.20786885 Ry
     estimated scf accuracy    <       0.00066359 Ry

     total magnetization       =     1.31 Bohr mag/cell
     absolute magnetization    =     1.40 Bohr mag/cell

     iteration #  6     ecut=    30.00 Ry     beta= 0.70
     Davidson diagonalization with overlap
     ethr =  7.37E-06,  avg # of iterations =  1.8

     total cpu time spent up to now is        7.5 secs

     total energy              =     -74.20915797 Ry
     Harris-Foulkes estimate   =     -74.20927604 Ry
     estimated scf accuracy    <       0.00042406 Ry

     total magnetization       =     0.96 Bohr mag/cell
     absolute magnetization    =     1.02 Bohr mag/cell

     iteration #  7     ecut=    30.00 Ry     beta= 0.70
     Davidson diagonalization with overlap
     ethr =  4.71E-06,  avg # of iterations =  1.2

     total cpu time spent up to now is        8.3 secs

     total energy              =     -74.20771512 Ry
     Harris-Foulkes estimate   =     -74.20928429 Ry
     estimated scf accuracy    <       0.00006112 Ry

     total magnetization       =     0.91 Bohr mag/cell
     absolute magnetization    =     0.97 Bohr mag/cell

     iteration #  8     ecut=    30.00 Ry     beta= 0.70
     Davidson diagonalization with overlap
     ethr =  6.79E-07,  avg # of iterations =  2.6

     total cpu time spent up to now is        9.5 secs

     total energy              =     -74.20961862 Ry
     Harris-Foulkes estimate   =     -74.20963361 Ry
     estimated scf accuracy    <       0.00008627 Ry

     total magnetization       =     0.64 Bohr mag/cell
     absolute magnetization    =     0.67 Bohr mag/cell

     iteration #  9     ecut=    30.00 Ry     beta= 0.70
     Davidson diagonalization with overlap
     ethr =  6.79E-07,  avg # of iterations =  1.0

     total cpu time spent up to now is       10.3 secs

     total energy              =     -74.20846968 Ry
     Harris-Foulkes estimate   =     -74.20962994 Ry
     estimated scf accuracy    <       0.00009538 Ry

     total magnetization       =     0.66 Bohr mag/cell
     absolute magnetization    =     0.70 Bohr mag/cell

     iteration # 10     ecut=    30.00 Ry     beta= 0.70
     Davidson diagonalization with overlap
     ethr =  6.79E-07,  avg # of iterations =  2.2

     total cpu time spent up to now is       11.4 secs

     total energy              =     -74.20971274 Ry
     Harris-Foulkes estimate   =     -74.20970981 Ry
     estimated scf accuracy    <       0.00000369 Ry

     total magnetization       =     0.43 Bohr mag/cell
     absolute magnetization    =     0.45 Bohr mag/cell

     iteration # 11     ecut=    30.00 Ry     beta= 0.70
     Davidson diagonalization with overlap
     ethr =  4.10E-08,  avg # of iterations =  1.2

     total cpu time spent up to now is       12.2 secs

     total energy              =     -74.20971553 Ry
     Harris-Foulkes estimate   =     -74.20971828 Ry
     estimated scf accuracy    <       0.00000244 Ry

     total magnetization       =     0.42 Bohr mag/cell
     absolute magnetization    =     0.44 Bohr mag/cell

     iteration # 12     ecut=    30.00 Ry     beta= 0.70
     Davidson diagonalization with overlap
     ethr =  2.71E-08,  avg # of iterations =  1.9

     total cpu time spent up to now is       13.1 secs

     total energy              =     -74.20961665 Ry
     Harris-Foulkes estimate   =     -74.20972378 Ry
     estimated scf accuracy    <       0.00000225 Ry

     total magnetization       =     0.40 Bohr mag/cell
     absolute magnetization    =     0.42 Bohr mag/cell

     iteration # 13     ecut=    30.00 Ry     beta= 0.70
     Davidson diagonalization with overlap
     ethr =  2.50E-08,  avg # of iterations =  2.9

     total cpu time spent up to now is       14.2 secs

     total energy              =     -74.20972372 Ry
     Harris-Foulkes estimate   =     -74.20974052 Ry
     estimated scf accuracy    <       0.00000240 Ry

     total magnetization       =     0.32 Bohr mag/cell
     absolute magnetization    =     0.34 Bohr mag/cell

     iteration # 14     ecut=    30.00 Ry     beta= 0.70
     Davidson diagonalization with overlap
     ethr =  2.50E-08,  avg # of iterations =  2.0

     total cpu time spent up to now is       15.2 secs

     total energy              =     -74.20959005 Ry
     Harris-Foulkes estimate   =     -74.20973608 Ry
     estimated scf accuracy    <       0.00000249 Ry

     total magnetization       =     0.35 Bohr mag/cell
     absolute magnetization    =     0.37 Bohr mag/cell

     iteration # 15     ecut=    30.00 Ry     beta= 0.70
     Davidson diagonalization with overlap
     ethr =  2.50E-08,  avg # of iterations =  2.9

     total cpu time spent up to now is       16.4 secs

     total energy              =     -74.20974713 Ry
     Harris-Foulkes estimate   =     -74.20975106 Ry
     estimated scf accuracy    <       0.00000126 Ry

     total magnetization       =     0.26 Bohr mag/cell
     absolute magnetization    =     0.28 Bohr mag/cell

     iteration # 16     ecut=    30.00 Ry     beta= 0.70
     Davidson diagonalization with overlap
     ethr =  1.40E-08,  avg # of iterations =  1.2

     total cpu time spent up to now is       17.2 secs

     total energy              =     -74.20975013 Ry
     Harris-Foulkes estimate   =     -74.20974997 Ry
     estimated scf accuracy    <       0.00000179 Ry

     total magnetization       =     0.27 Bohr mag/cell
     absolute magnetization    =     0.29 Bohr mag/cell

     iteration # 17     ecut=    30.00 Ry     beta= 0.70
     Davidson diagonalization with overlap
     ethr =  1.40E-08,  avg # of iterations =  1.0

     total cpu time spent up to now is       18.0 secs

     total energy              =     -74.20974954 Ry
     Harris-Foulkes estimate   =     -74.20975018 Ry
     estimated scf accuracy    <       0.00000160 Ry

     total magnetization       =     0.27 Bohr mag/cell
     absolute magnetization    =     0.29 Bohr mag/cell

     iteration # 18     ecut=    30.00 Ry     beta= 0.70
     Davidson diagonalization with overlap
     ethr =  1.40E-08,  avg # of iterations =  1.3

     total cpu time spent up to now is       18.8 secs

     total energy              =     -74.20872816 Ry
     Harris-Foulkes estimate   =     -74.20975230 Ry
     estimated scf accuracy    <       0.00000182 Ry

     total magnetization       =     0.26 Bohr mag/cell
     absolute magnetization    =     0.28 Bohr mag/cell

     iteration # 19     ecut=    30.00 Ry     beta= 0.70
     Davidson diagonalization with overlap
     ethr =  1.40E-08,  avg # of iterations =  3.7

     total cpu time spent up to now is       20.2 secs

     total energy              =     -74.20975613 Ry
     Harris-Foulkes estimate   =     -74.20977148 Ry
     estimated scf accuracy    <       0.00000052 Ry

     total magnetization       =     0.05 Bohr mag/cell
     absolute magnetization    =     0.05 Bohr mag/cell

     iteration # 20     ecut=    30.00 Ry     beta= 0.70
     Davidson diagonalization with overlap
     ethr =  5.83E-09,  avg # of iterations =  2.8

     total cpu time spent up to now is       21.3 secs

     total energy              =     -74.20975972 Ry
     Harris-Foulkes estimate   =     -74.20977478 Ry
     estimated scf accuracy    <       0.00000024 Ry

     total magnetization       =     0.02 Bohr mag/cell
     absolute magnetization    =     0.02 Bohr mag/cell

     iteration # 21     ecut=    30.00 Ry     beta= 0.70
     Davidson diagonalization with overlap
     ethr =  2.72E-09,  avg # of iterations =  3.0

     Magnetic moment per site:
     atom:    1    charge:    7.5163    magn:   -0.0056    constr:    0.0000

     total cpu time spent up to now is       22.6 secs

     End of self-consistent calculation

     Number of k-points >= 100: set verbosity='high' to print the bands.

     the Fermi energy is    18.3944 ev

!    total energy              =     -74.20977548 Ry
     Harris-Foulkes estimate   =     -74.20977528 Ry
     estimated scf accuracy    <          4.5E-09 Ry

     The total energy is the sum of the following terms:

     one-electron contribution =       9.70765688 Ry
     hartree contribution      =       8.92425581 Ry
     xc contribution           =     -32.55278609 Ry
     ewald contribution        =     -60.28795910 Ry
     smearing contrib. (-TS)   =      -0.00094298 Ry

     total magnetization       =    -0.01 Bohr mag/cell
     absolute magnetization    =     0.01 Bohr mag/cell

     convergence has been achieved in  21 iterations

     Forces acting on atoms (cartesian axes, Ry/au):

     atom    1 type  1   force =     0.00000000    0.00000000    0.00000000

     Total force =     0.000000     Total SCF correction =     0.000000


     Computing stress (Cartesian axis) and pressure

          total   stress  (Ry/bohr**3)                   (kbar)     P=  388.47
   0.00264078   0.00000000   0.00000000        388.47      0.00      0.00
   0.00000000   0.00264078  -0.00000000          0.00    388.47     -0.00
   0.00000000  -0.00000000   0.00264078          0.00     -0.00    388.47


     Writing output data file Co.FCC.save/

     init_run     :      1.12s CPU      1.16s WALL (       1 calls)
     electrons    :     20.30s CPU     21.12s WALL (       1 calls)
     forces       :      0.20s CPU      0.21s WALL (       1 calls)
     stress       :      0.46s CPU      0.47s WALL (       1 calls)

     Called by init_run:
     wfcinit      :      0.24s CPU      0.26s WALL (       1 calls)
     potinit      :      0.02s CPU      0.02s WALL (       1 calls)
     hinit0       :      0.82s CPU      0.83s WALL (       1 calls)

     Called by electrons:
     c_bands      :     15.41s CPU     16.12s WALL (      21 calls)
     sum_band     :      3.80s CPU      3.89s WALL (      21 calls)
     v_of_rho     :      0.25s CPU      0.25s WALL (      22 calls)
     newd         :      0.79s CPU      0.81s WALL (      22 calls)
     mix_rho      :      0.06s CPU      0.06s WALL (      21 calls)

     Called by c_bands:
     init_us_2    :      0.78s CPU      0.81s WALL (    6480 calls)
     cegterg      :     14.32s CPU     14.98s WALL (    3024 calls)

     Called by sum_band:
     sum_band:bec :      0.10s CPU      0.10s WALL (    3024 calls)
     addusdens    :      1.51s CPU      1.52s WALL (      21 calls)

     Called by *egterg:
     h_psi        :      7.27s CPU      7.62s WALL (    9485 calls)
     s_psi        :      1.03s CPU      1.08s WALL (    9485 calls)
     g_psi        :      0.05s CPU      0.06s WALL (    6317 calls)
     cdiaghg      :      2.63s CPU      2.75s WALL (    9341 calls)

     Called by h_psi:
     h_psi:pot    :      7.21s CPU      7.56s WALL (    9485 calls)
     h_psi:calbec :      1.17s CPU      1.23s WALL (    9485 calls)
     vloc_psi     :      4.94s CPU      5.17s WALL (    9485 calls)
     add_vuspsi   :      1.06s CPU      1.11s WALL (    9485 calls)

     General routines
     calbec       :      1.69s CPU      1.76s WALL (   13229 calls)
     fft          :      0.13s CPU      0.14s WALL (     246 calls)
     ffts         :      0.00s CPU      0.00s WALL (      86 calls)
     fftw         :      3.63s CPU      3.81s WALL (  160806 calls)
     interpolate  :      0.03s CPU      0.03s WALL (      44 calls)

     Parallel routines

     PWSCF        :     22.43s CPU     23.32s WALL


   This run was terminated on:   6:30: 7  19Feb2020            

=------------------------------------------------------------------------------=
   JOB DONE.
=------------------------------------------------------------------------------=
