     Message from routine get_command_line:
     unexpected argument # 2     :-input

     Program PWSCF v.6.4.1 starts on 19Feb2020 at  9: 1:23 

     This program is part of the open-source Quantum ESPRESSO suite
     for quantum simulation of materials; please cite
         "P. Giannozzi et al., J. Phys.:Condens. Matter 21 395502 (2009);
         "P. Giannozzi et al., J. Phys.:Condens. Matter 29 465901 (2017);
          URL http://www.quantum-espresso.org", 
     in publications or presentations arising from this work. More details at
     http://www.quantum-espresso.org/quote

     Parallel version (MPI), running on     1 processors

     MPI processes distributed on     1 nodes
     Waiting for input...
     Reading input from standard input
     Message from routine read_cards :
     DEPRECATED: no units specified in ATOMIC_POSITIONS card
     Message from routine read_cards :
     ATOMIC_POSITIONS: units set to alat

     Current dimensions of program PWSCF are:
     Max number of different atomic species (ntypx) = 10
     Max number of k-points (npk) =  40000
     Max angular momentum in pseudopotentials (lmaxx) =  3
               file Co.pz-nd-rrkjus.UPF: wavefunction(s)  4S 3D renormalized

     Subspace diagonalization in iterative solution of the eigenvalue problem:
     a serial algorithm will be used


     G-vector sticks info
     --------------------
     sticks:   dense  smooth     PW     G-vecs:    dense   smooth      PW
     Sum         451     211     85                 6375     2109     459



     bravais-lattice index     =            2
     lattice parameter (alat)  =       7.2600  a.u.
     unit-cell volume          =      95.6643 (a.u.)^3
     number of atoms/cell      =            1
     number of atomic types    =            1
     number of electrons       =         9.00
     number of Kohn-Sham states=            9
     kinetic-energy cutoff     =      30.0000  Ry
     charge density cutoff     =     250.0000  Ry
     convergence threshold     =      1.0E-08
     mixing beta               =       0.7000
     number of iterations used =            8  plain     mixing
     Exchange-correlation      =  SLA  PZ   NOGX NOGC ( 1  1  0  0 0 0)

     celldm(1)=   7.260000  celldm(2)=   0.000000  celldm(3)=   0.000000
     celldm(4)=   0.000000  celldm(5)=   0.000000  celldm(6)=   0.000000

     crystal axes: (cart. coord. in units of alat)
               a(1) = (  -0.500000   0.000000   0.500000 )  
               a(2) = (   0.000000   0.500000   0.500000 )  
               a(3) = (  -0.500000   0.500000   0.000000 )  

     reciprocal axes: (cart. coord. in units 2 pi/alat)
               b(1) = ( -1.000000 -1.000000  1.000000 )  
               b(2) = (  1.000000  1.000000  1.000000 )  
               b(3) = ( -1.000000  1.000000 -1.000000 )  


     PseudoPot. # 1 for Co read from file:
     ./Co.pz-nd-rrkjus.UPF
     MD5 check sum: c80159f6ca3a93d3df3cfc6468bb3c3d
     Pseudo is Ultrasoft + core correction, Zval =  9.0
     Generated by new atomic code, or converted to UPF format
     Using radial grid of  961 points,  6 beta functions with: 
                l(1) =   0
                l(2) =   0
                l(3) =   1
                l(4) =   1
                l(5) =   2
                l(6) =   2
     Q(r) pseudized with 0 coefficients 


     atomic species   valence    mass     pseudopotential
        Co             9.00    58.93300     Co( 1.00)

     Starting magnetic structure 
     atomic species   magnetization
        Co           0.700

     48 Sym. Ops., with inversion, found



   Cartesian axes

     site n.     atom                  positions (alat units)
         1           Co  tau(   1) = (   0.0000000   0.0000000   0.0000000  )

     number of k points=    72  Marzari-Vanderbilt smearing, width (Ry)=  0.0300
                       cart. coord. in units 2pi/alat
        k(    1) = (   0.0000000   0.0000000   0.0000000), wk =   0.0005787
        k(    2) = (  -0.0833333   0.0833333  -0.0833333), wk =   0.0046296
        k(    3) = (  -0.1666667   0.1666667  -0.1666667), wk =   0.0046296
        k(    4) = (  -0.2500000   0.2500000  -0.2500000), wk =   0.0046296
        k(    5) = (  -0.3333333   0.3333333  -0.3333333), wk =   0.0046296
        k(    6) = (  -0.4166667   0.4166667  -0.4166667), wk =   0.0046296
        k(    7) = (   0.5000000  -0.5000000   0.5000000), wk =   0.0023148
        k(    8) = (   0.0000000   0.1666667   0.0000000), wk =   0.0034722
        k(    9) = (  -0.0833333   0.2500000  -0.0833333), wk =   0.0138889
        k(   10) = (  -0.1666667   0.3333333  -0.1666667), wk =   0.0138889
        k(   11) = (  -0.2500000   0.4166667  -0.2500000), wk =   0.0138889
        k(   12) = (  -0.3333333   0.5000000  -0.3333333), wk =   0.0138889
        k(   13) = (   0.5833333  -0.4166667   0.5833333), wk =   0.0138889
        k(   14) = (   0.5000000  -0.3333333   0.5000000), wk =   0.0138889
        k(   15) = (   0.4166667  -0.2500000   0.4166667), wk =   0.0138889
        k(   16) = (   0.3333333  -0.1666667   0.3333333), wk =   0.0138889
        k(   17) = (   0.2500000  -0.0833333   0.2500000), wk =   0.0138889
        k(   18) = (   0.1666667  -0.0000000   0.1666667), wk =   0.0069444
        k(   19) = (   0.0000000   0.3333333   0.0000000), wk =   0.0034722
        k(   20) = (  -0.0833333   0.4166667  -0.0833333), wk =   0.0138889
        k(   21) = (  -0.1666667   0.5000000  -0.1666667), wk =   0.0138889
        k(   22) = (  -0.2500000   0.5833333  -0.2500000), wk =   0.0138889
        k(   23) = (   0.6666667  -0.3333333   0.6666667), wk =   0.0138889
        k(   24) = (   0.5833333  -0.2500000   0.5833333), wk =   0.0138889
        k(   25) = (   0.5000000  -0.1666667   0.5000000), wk =   0.0138889
        k(   26) = (   0.4166667  -0.0833333   0.4166667), wk =   0.0138889
        k(   27) = (   0.3333333   0.0000000   0.3333333), wk =   0.0069444
        k(   28) = (   0.0000000   0.5000000   0.0000000), wk =   0.0034722
        k(   29) = (  -0.0833333   0.5833333  -0.0833333), wk =   0.0138889
        k(   30) = (  -0.1666667   0.6666667  -0.1666667), wk =   0.0138889
        k(   31) = (   0.7500000  -0.2500000   0.7500000), wk =   0.0138889
        k(   32) = (   0.6666667  -0.1666667   0.6666667), wk =   0.0138889
        k(   33) = (   0.5833333  -0.0833333   0.5833333), wk =   0.0138889
        k(   34) = (   0.5000000   0.0000000   0.5000000), wk =   0.0069444
        k(   35) = (   0.0000000   0.6666667   0.0000000), wk =   0.0034722
        k(   36) = (  -0.0833333   0.7500000  -0.0833333), wk =   0.0138889
        k(   37) = (   0.8333333  -0.1666667   0.8333333), wk =   0.0138889
        k(   38) = (   0.7500000  -0.0833333   0.7500000), wk =   0.0138889
        k(   39) = (   0.6666667  -0.0000000   0.6666667), wk =   0.0069444
        k(   40) = (   0.0000000   0.8333333   0.0000000), wk =   0.0034722
        k(   41) = (   0.9166667  -0.0833333   0.9166667), wk =   0.0138889
        k(   42) = (   0.8333333   0.0000000   0.8333333), wk =   0.0069444
        k(   43) = (   0.0000000  -1.0000000   0.0000000), wk =   0.0017361
        k(   44) = (  -0.1666667   0.3333333   0.0000000), wk =   0.0138889
        k(   45) = (  -0.2500000   0.4166667  -0.0833333), wk =   0.0277778
        k(   46) = (  -0.3333333   0.5000000  -0.1666667), wk =   0.0277778
        k(   47) = (   0.5833333  -0.4166667   0.7500000), wk =   0.0277778
        k(   48) = (   0.5000000  -0.3333333   0.6666667), wk =   0.0138889
        k(   49) = (  -0.1666667   0.5000000   0.0000000), wk =   0.0138889
        k(   50) = (  -0.2500000   0.5833333  -0.0833333), wk =   0.0277778
        k(   51) = (   0.6666667  -0.3333333   0.8333333), wk =   0.0277778
        k(   52) = (   0.5833333  -0.2500000   0.7500000), wk =   0.0277778
        k(   53) = (   0.5000000  -0.1666667   0.6666667), wk =   0.0277778
        k(   54) = (   0.4166667  -0.0833333   0.5833333), wk =   0.0277778
        k(   55) = (   0.3333333   0.0000000   0.5000000), wk =   0.0138889
        k(   56) = (  -0.1666667   0.6666667  -0.0000000), wk =   0.0138889
        k(   57) = (   0.7500000  -0.2500000   0.9166667), wk =   0.0277778
        k(   58) = (   0.6666667  -0.1666667   0.8333333), wk =   0.0277778
        k(   59) = (   0.5833333  -0.0833333   0.7500000), wk =   0.0277778
        k(   60) = (   0.5000000   0.0000000   0.6666667), wk =   0.0138889
        k(   61) = (   0.8333333  -0.1666667   1.0000000), wk =   0.0138889
        k(   62) = (   0.7500000  -0.0833333   0.9166667), wk =   0.0277778
        k(   63) = (   0.6666667   0.0000000   0.8333333), wk =   0.0138889
        k(   64) = (  -0.1666667  -1.0000000  -0.0000000), wk =   0.0069444
        k(   65) = (   0.6666667  -0.3333333   1.0000000), wk =   0.0138889
        k(   66) = (   0.5833333  -0.2500000   0.9166667), wk =   0.0277778
        k(   67) = (   0.5000000  -0.1666667   0.8333333), wk =   0.0138889
        k(   68) = (   0.6666667  -0.1666667   1.0000000), wk =   0.0138889
        k(   69) = (   0.5833333  -0.0833333   0.9166667), wk =   0.0277778
        k(   70) = (   0.5000000   0.0000000   0.8333333), wk =   0.0138889
        k(   71) = (  -0.3333333  -1.0000000   0.0000000), wk =   0.0069444
        k(   72) = (  -0.5000000  -1.0000000   0.0000000), wk =   0.0034722

     Dense  grid:     6375 G-vectors     FFT dimensions: (  25,  25,  25)

     Smooth grid:     2109 G-vectors     FFT dimensions: (  18,  18,  18)

     Estimated max dynamical RAM per process >      32.75 MB
     Generating pointlists ...
     new r_m :   0.2917 (alat units)  2.1176 (a.u.) for type    1

     Check: negative core charge=   -0.000047

     Initial potential from superposition of free atoms

     starting charge    8.99962, renormalised to    9.00000
     Starting wfcs are    6 randomized atomic wfcs +    3 random wfcs

     total cpu time spent up to now is        2.2 secs

     Self-consistent Calculation

     iteration #  1     ecut=    30.00 Ry     beta= 0.70
     Davidson diagonalization with overlap
     ethr =  1.00E-02,  avg # of iterations =  4.4

     total cpu time spent up to now is        6.3 secs

     total energy              =     -73.81672127 Ry
     Harris-Foulkes estimate   =     -74.08026526 Ry
     estimated scf accuracy    <       0.67705790 Ry

     total magnetization       =     2.79 Bohr mag/cell
     absolute magnetization    =     2.80 Bohr mag/cell

     iteration #  2     ecut=    30.00 Ry     beta= 0.70
     Davidson diagonalization with overlap
     ethr =  7.52E-03,  avg # of iterations =  2.1

     total cpu time spent up to now is        9.3 secs

     total energy              =     -73.90908073 Ry
     Harris-Foulkes estimate   =     -74.47362633 Ry
     estimated scf accuracy    <       1.55964524 Ry

     total magnetization       =     1.49 Bohr mag/cell
     absolute magnetization    =     1.57 Bohr mag/cell

     iteration #  3     ecut=    30.00 Ry     beta= 0.70
     Davidson diagonalization with overlap
     ethr =  7.52E-03,  avg # of iterations =  1.6

     total cpu time spent up to now is       12.0 secs

     total energy              =     -74.16306506 Ry
     Harris-Foulkes estimate   =     -74.14742137 Ry
     estimated scf accuracy    <       0.01623413 Ry

     total magnetization       =     2.06 Bohr mag/cell
     absolute magnetization    =     2.17 Bohr mag/cell

     iteration #  4     ecut=    30.00 Ry     beta= 0.70
     Davidson diagonalization with overlap
     ethr =  1.80E-04,  avg # of iterations =  2.2

     total cpu time spent up to now is       15.0 secs

     total energy              =     -74.17057308 Ry
     Harris-Foulkes estimate   =     -74.17015003 Ry
     estimated scf accuracy    <       0.00084805 Ry

     total magnetization       =     1.80 Bohr mag/cell
     absolute magnetization    =     1.99 Bohr mag/cell

     iteration #  5     ecut=    30.00 Ry     beta= 0.70
     Davidson diagonalization with overlap
     ethr =  9.42E-06,  avg # of iterations =  2.1

     total cpu time spent up to now is       17.7 secs

     total energy              =     -74.17073992 Ry
     Harris-Foulkes estimate   =     -74.17071235 Ry
     estimated scf accuracy    <       0.00002354 Ry

     total magnetization       =     1.78 Bohr mag/cell
     absolute magnetization    =     1.96 Bohr mag/cell

     iteration #  6     ecut=    30.00 Ry     beta= 0.70
     Davidson diagonalization with overlap
     ethr =  2.62E-07,  avg # of iterations =  2.6

     total cpu time spent up to now is       20.8 secs

     total energy              =     -74.17075474 Ry
     Harris-Foulkes estimate   =     -74.17075208 Ry
     estimated scf accuracy    <       0.00000624 Ry

     total magnetization       =     1.78 Bohr mag/cell
     absolute magnetization    =     1.96 Bohr mag/cell

     iteration #  7     ecut=    30.00 Ry     beta= 0.70
     Davidson diagonalization with overlap
     ethr =  6.94E-08,  avg # of iterations =  1.4

     total cpu time spent up to now is       23.3 secs

     total energy              =     -74.17075658 Ry
     Harris-Foulkes estimate   =     -74.17075637 Ry
     estimated scf accuracy    <       0.00000028 Ry

     total magnetization       =     1.78 Bohr mag/cell
     absolute magnetization    =     1.95 Bohr mag/cell

     iteration #  8     ecut=    30.00 Ry     beta= 0.70
     Davidson diagonalization with overlap
     ethr =  3.07E-09,  avg # of iterations =  2.2

     total cpu time spent up to now is       26.2 secs

     total energy              =     -74.17075667 Ry
     Harris-Foulkes estimate   =     -74.17075667 Ry
     estimated scf accuracy    <       0.00000001 Ry

     total magnetization       =     1.78 Bohr mag/cell
     absolute magnetization    =     1.95 Bohr mag/cell

     iteration #  9     ecut=    30.00 Ry     beta= 0.70
     Davidson diagonalization with overlap
     ethr =  1.44E-10,  avg # of iterations =  2.0

     Magnetic moment per site:
     atom:    1    charge:    7.8303    magn:    1.8590    constr:    0.0000

     total cpu time spent up to now is       28.9 secs

     End of self-consistent calculation

     Number of k-points >= 100: set verbosity='high' to print the bands.

     the Fermi energy is     9.6842 ev

!    total energy              =     -74.17075667 Ry
     Harris-Foulkes estimate   =     -74.17075667 Ry
     estimated scf accuracy    <          9.8E-11 Ry

     The total energy is the sum of the following terms:

     one-electron contribution =      -3.59499026 Ry
     hartree contribution      =      12.83367230 Ry
     xc contribution           =     -32.25708002 Ry
     ewald contribution        =     -51.15341984 Ry
     smearing contrib. (-TS)   =       0.00106114 Ry

     total magnetization       =     1.78 Bohr mag/cell
     absolute magnetization    =     1.95 Bohr mag/cell

     convergence has been achieved in   9 iterations

     Forces acting on atoms (cartesian axes, Ry/au):

     atom    1 type  1   force =     0.00000000    0.00000000    0.00000000

     Total force =     0.000000     Total SCF correction =     0.000000


     Computing stress (Cartesian axis) and pressure

          total   stress  (Ry/bohr**3)                   (kbar)     P= -406.31
  -0.00276204   0.00000000   0.00000000       -406.31      0.00      0.00
   0.00000000  -0.00276204  -0.00000000          0.00   -406.31     -0.00
   0.00000000  -0.00000000  -0.00276204          0.00     -0.00   -406.31


     Writing output data file Co.FCC.save/

     init_run     :      1.91s CPU      1.97s WALL (       1 calls)
     electrons    :     26.22s CPU     26.66s WALL (       1 calls)
     forces       :      0.32s CPU      0.33s WALL (       1 calls)
     stress       :      0.74s CPU      0.74s WALL (       1 calls)

     Called by init_run:
     wfcinit      :      0.89s CPU      0.93s WALL (       1 calls)
     potinit      :      0.04s CPU      0.04s WALL (       1 calls)
     hinit0       :      0.90s CPU      0.93s WALL (       1 calls)

     Called by electrons:
     c_bands      :     20.27s CPU     20.63s WALL (       9 calls)
     sum_band     :      5.28s CPU      5.36s WALL (       9 calls)
     v_of_rho     :      0.12s CPU      0.12s WALL (      10 calls)
     newd         :      0.58s CPU      0.59s WALL (      10 calls)
     mix_rho      :      0.02s CPU      0.02s WALL (       9 calls)

     Called by c_bands:
     init_us_2    :      0.44s CPU      0.45s WALL (    3024 calls)
     cegterg      :     19.61s CPU     19.95s WALL (    1296 calls)

     Called by sum_band:
     sum_band:bec :      0.04s CPU      0.05s WALL (    1296 calls)
     addusdens    :      1.05s CPU      1.06s WALL (       9 calls)

     Called by *egterg:
     h_psi        :     15.99s CPU     16.28s WALL (    4404 calls)
     s_psi        :      0.74s CPU      0.75s WALL (    4404 calls)
     g_psi        :      0.04s CPU      0.04s WALL (    2964 calls)
     cdiaghg      :      1.28s CPU      1.30s WALL (    4260 calls)

     Called by h_psi:
     h_psi:pot    :     15.95s CPU     16.25s WALL (    4404 calls)
     h_psi:calbec :      0.86s CPU      0.87s WALL (    4404 calls)
     vloc_psi     :     14.34s CPU     14.62s WALL (    4404 calls)
     add_vuspsi   :      0.72s CPU      0.73s WALL (    4404 calls)

     General routines
     calbec       :      1.35s CPU      1.37s WALL (    6420 calls)
     fft          :      0.02s CPU      0.02s WALL (     114 calls)
     ffts         :      0.03s CPU      0.03s WALL (      38 calls)
     fftw         :     16.06s CPU     16.38s WALL (   70066 calls)
     interpolate  :      0.03s CPU      0.03s WALL (      20 calls)

     Parallel routines

     PWSCF        :     29.53s CPU     30.08s WALL


   This run was terminated on:   9: 1:53  19Feb2020            

=------------------------------------------------------------------------------=
   JOB DONE.
=------------------------------------------------------------------------------=
