     Message from routine get_command_line:
     unexpected argument # 2     :-input

     Program PWSCF v.6.4.1 starts on 19Feb2020 at  8:54:52 

     This program is part of the open-source Quantum ESPRESSO suite
     for quantum simulation of materials; please cite
         "P. Giannozzi et al., J. Phys.:Condens. Matter 21 395502 (2009);
         "P. Giannozzi et al., J. Phys.:Condens. Matter 29 465901 (2017);
          URL http://www.quantum-espresso.org", 
     in publications or presentations arising from this work. More details at
     http://www.quantum-espresso.org/quote

     Parallel version (MPI), running on     1 processors

     MPI processes distributed on     1 nodes
     Waiting for input...
     Reading input from standard input
     Message from routine read_cards :
     DEPRECATED: no units specified in ATOMIC_POSITIONS card
     Message from routine read_cards :
     ATOMIC_POSITIONS: units set to alat

     Current dimensions of program PWSCF are:
     Max number of different atomic species (ntypx) = 10
     Max number of k-points (npk) =  40000
     Max angular momentum in pseudopotentials (lmaxx) =  3
               file Co.pz-nd-rrkjus.UPF: wavefunction(s)  4S 3D renormalized

     Subspace diagonalization in iterative solution of the eigenvalue problem:
     a serial algorithm will be used


     G-vector sticks info
     --------------------
     sticks:   dense  smooth     PW     G-vecs:    dense   smooth      PW
     Sum         313     151     55                 3527     1243     283



     bravais-lattice index     =            2
     lattice parameter (alat)  =       5.9800  a.u.
     unit-cell volume          =      53.4618 (a.u.)^3
     number of atoms/cell      =            1
     number of atomic types    =            1
     number of electrons       =         9.00
     number of Kohn-Sham states=            9
     kinetic-energy cutoff     =      30.0000  Ry
     charge density cutoff     =     250.0000  Ry
     convergence threshold     =      1.0E-08
     mixing beta               =       0.7000
     number of iterations used =            8  plain     mixing
     Exchange-correlation      =  SLA  PZ   NOGX NOGC ( 1  1  0  0 0 0)

     celldm(1)=   5.980000  celldm(2)=   0.000000  celldm(3)=   0.000000
     celldm(4)=   0.000000  celldm(5)=   0.000000  celldm(6)=   0.000000

     crystal axes: (cart. coord. in units of alat)
               a(1) = (  -0.500000   0.000000   0.500000 )  
               a(2) = (   0.000000   0.500000   0.500000 )  
               a(3) = (  -0.500000   0.500000   0.000000 )  

     reciprocal axes: (cart. coord. in units 2 pi/alat)
               b(1) = ( -1.000000 -1.000000  1.000000 )  
               b(2) = (  1.000000  1.000000  1.000000 )  
               b(3) = ( -1.000000  1.000000 -1.000000 )  


     PseudoPot. # 1 for Co read from file:
     ./Co.pz-nd-rrkjus.UPF
     MD5 check sum: c80159f6ca3a93d3df3cfc6468bb3c3d
     Pseudo is Ultrasoft + core correction, Zval =  9.0
     Generated by new atomic code, or converted to UPF format
     Using radial grid of  961 points,  6 beta functions with: 
                l(1) =   0
                l(2) =   0
                l(3) =   1
                l(4) =   1
                l(5) =   2
                l(6) =   2
     Q(r) pseudized with 0 coefficients 


     atomic species   valence    mass     pseudopotential
        Co             9.00    58.93300     Co( 1.00)

     Starting magnetic structure 
     atomic species   magnetization
        Co           0.700

     48 Sym. Ops., with inversion, found



   Cartesian axes

     site n.     atom                  positions (alat units)
         1           Co  tau(   1) = (   0.0000000   0.0000000   0.0000000  )

     number of k points=    72  Marzari-Vanderbilt smearing, width (Ry)=  0.0300
                       cart. coord. in units 2pi/alat
        k(    1) = (   0.0000000   0.0000000   0.0000000), wk =   0.0005787
        k(    2) = (  -0.0833333   0.0833333  -0.0833333), wk =   0.0046296
        k(    3) = (  -0.1666667   0.1666667  -0.1666667), wk =   0.0046296
        k(    4) = (  -0.2500000   0.2500000  -0.2500000), wk =   0.0046296
        k(    5) = (  -0.3333333   0.3333333  -0.3333333), wk =   0.0046296
        k(    6) = (  -0.4166667   0.4166667  -0.4166667), wk =   0.0046296
        k(    7) = (   0.5000000  -0.5000000   0.5000000), wk =   0.0023148
        k(    8) = (   0.0000000   0.1666667   0.0000000), wk =   0.0034722
        k(    9) = (  -0.0833333   0.2500000  -0.0833333), wk =   0.0138889
        k(   10) = (  -0.1666667   0.3333333  -0.1666667), wk =   0.0138889
        k(   11) = (  -0.2500000   0.4166667  -0.2500000), wk =   0.0138889
        k(   12) = (  -0.3333333   0.5000000  -0.3333333), wk =   0.0138889
        k(   13) = (   0.5833333  -0.4166667   0.5833333), wk =   0.0138889
        k(   14) = (   0.5000000  -0.3333333   0.5000000), wk =   0.0138889
        k(   15) = (   0.4166667  -0.2500000   0.4166667), wk =   0.0138889
        k(   16) = (   0.3333333  -0.1666667   0.3333333), wk =   0.0138889
        k(   17) = (   0.2500000  -0.0833333   0.2500000), wk =   0.0138889
        k(   18) = (   0.1666667  -0.0000000   0.1666667), wk =   0.0069444
        k(   19) = (   0.0000000   0.3333333   0.0000000), wk =   0.0034722
        k(   20) = (  -0.0833333   0.4166667  -0.0833333), wk =   0.0138889
        k(   21) = (  -0.1666667   0.5000000  -0.1666667), wk =   0.0138889
        k(   22) = (  -0.2500000   0.5833333  -0.2500000), wk =   0.0138889
        k(   23) = (   0.6666667  -0.3333333   0.6666667), wk =   0.0138889
        k(   24) = (   0.5833333  -0.2500000   0.5833333), wk =   0.0138889
        k(   25) = (   0.5000000  -0.1666667   0.5000000), wk =   0.0138889
        k(   26) = (   0.4166667  -0.0833333   0.4166667), wk =   0.0138889
        k(   27) = (   0.3333333   0.0000000   0.3333333), wk =   0.0069444
        k(   28) = (   0.0000000   0.5000000   0.0000000), wk =   0.0034722
        k(   29) = (  -0.0833333   0.5833333  -0.0833333), wk =   0.0138889
        k(   30) = (  -0.1666667   0.6666667  -0.1666667), wk =   0.0138889
        k(   31) = (   0.7500000  -0.2500000   0.7500000), wk =   0.0138889
        k(   32) = (   0.6666667  -0.1666667   0.6666667), wk =   0.0138889
        k(   33) = (   0.5833333  -0.0833333   0.5833333), wk =   0.0138889
        k(   34) = (   0.5000000   0.0000000   0.5000000), wk =   0.0069444
        k(   35) = (   0.0000000   0.6666667   0.0000000), wk =   0.0034722
        k(   36) = (  -0.0833333   0.7500000  -0.0833333), wk =   0.0138889
        k(   37) = (   0.8333333  -0.1666667   0.8333333), wk =   0.0138889
        k(   38) = (   0.7500000  -0.0833333   0.7500000), wk =   0.0138889
        k(   39) = (   0.6666667  -0.0000000   0.6666667), wk =   0.0069444
        k(   40) = (   0.0000000   0.8333333   0.0000000), wk =   0.0034722
        k(   41) = (   0.9166667  -0.0833333   0.9166667), wk =   0.0138889
        k(   42) = (   0.8333333   0.0000000   0.8333333), wk =   0.0069444
        k(   43) = (   0.0000000  -1.0000000   0.0000000), wk =   0.0017361
        k(   44) = (  -0.1666667   0.3333333   0.0000000), wk =   0.0138889
        k(   45) = (  -0.2500000   0.4166667  -0.0833333), wk =   0.0277778
        k(   46) = (  -0.3333333   0.5000000  -0.1666667), wk =   0.0277778
        k(   47) = (   0.5833333  -0.4166667   0.7500000), wk =   0.0277778
        k(   48) = (   0.5000000  -0.3333333   0.6666667), wk =   0.0138889
        k(   49) = (  -0.1666667   0.5000000   0.0000000), wk =   0.0138889
        k(   50) = (  -0.2500000   0.5833333  -0.0833333), wk =   0.0277778
        k(   51) = (   0.6666667  -0.3333333   0.8333333), wk =   0.0277778
        k(   52) = (   0.5833333  -0.2500000   0.7500000), wk =   0.0277778
        k(   53) = (   0.5000000  -0.1666667   0.6666667), wk =   0.0277778
        k(   54) = (   0.4166667  -0.0833333   0.5833333), wk =   0.0277778
        k(   55) = (   0.3333333   0.0000000   0.5000000), wk =   0.0138889
        k(   56) = (  -0.1666667   0.6666667  -0.0000000), wk =   0.0138889
        k(   57) = (   0.7500000  -0.2500000   0.9166667), wk =   0.0277778
        k(   58) = (   0.6666667  -0.1666667   0.8333333), wk =   0.0277778
        k(   59) = (   0.5833333  -0.0833333   0.7500000), wk =   0.0277778
        k(   60) = (   0.5000000   0.0000000   0.6666667), wk =   0.0138889
        k(   61) = (   0.8333333  -0.1666667   1.0000000), wk =   0.0138889
        k(   62) = (   0.7500000  -0.0833333   0.9166667), wk =   0.0277778
        k(   63) = (   0.6666667   0.0000000   0.8333333), wk =   0.0138889
        k(   64) = (  -0.1666667  -1.0000000  -0.0000000), wk =   0.0069444
        k(   65) = (   0.6666667  -0.3333333   1.0000000), wk =   0.0138889
        k(   66) = (   0.5833333  -0.2500000   0.9166667), wk =   0.0277778
        k(   67) = (   0.5000000  -0.1666667   0.8333333), wk =   0.0138889
        k(   68) = (   0.6666667  -0.1666667   1.0000000), wk =   0.0138889
        k(   69) = (   0.5833333  -0.0833333   0.9166667), wk =   0.0277778
        k(   70) = (   0.5000000   0.0000000   0.8333333), wk =   0.0138889
        k(   71) = (  -0.3333333  -1.0000000   0.0000000), wk =   0.0069444
        k(   72) = (  -0.5000000  -1.0000000   0.0000000), wk =   0.0034722

     Dense  grid:     3527 G-vectors     FFT dimensions: (  24,  24,  24)

     Smooth grid:     1243 G-vectors     FFT dimensions: (  15,  15,  15)

     Estimated max dynamical RAM per process >      19.10 MB
     Generating pointlists ...
     new r_m :   0.2917 (alat units)  1.7443 (a.u.) for type    1

     Check: negative core charge=   -0.000011

     Initial potential from superposition of free atoms

     starting charge    8.99962, renormalised to    9.00000
     Starting wfcs are    6 randomized atomic wfcs +    3 random wfcs

     total cpu time spent up to now is        1.4 secs

     Self-consistent Calculation

     iteration #  1     ecut=    30.00 Ry     beta= 0.70
     Davidson diagonalization with overlap
     ethr =  1.00E-02,  avg # of iterations =  4.3

     total cpu time spent up to now is        2.9 secs

     total energy              =     -73.98098009 Ry
     Harris-Foulkes estimate   =     -73.96914055 Ry
     estimated scf accuracy    <       0.51670554 Ry

     total magnetization       =     2.24 Bohr mag/cell
     absolute magnetization    =     2.24 Bohr mag/cell

     iteration #  2     ecut=    30.00 Ry     beta= 0.70
     Davidson diagonalization with overlap
     ethr =  5.74E-03,  avg # of iterations =  2.0

     total cpu time spent up to now is        3.8 secs

     total energy              =     -74.09430102 Ry
     Harris-Foulkes estimate   =     -74.20883218 Ry
     estimated scf accuracy    <       0.30314454 Ry

     total magnetization       =     1.64 Bohr mag/cell
     absolute magnetization    =     1.68 Bohr mag/cell

     iteration #  3     ecut=    30.00 Ry     beta= 0.70
     Davidson diagonalization with overlap
     ethr =  3.37E-03,  avg # of iterations =  1.4

     total cpu time spent up to now is        4.6 secs

     total energy              =     -74.17413597 Ry
     Harris-Foulkes estimate   =     -74.16252514 Ry
     estimated scf accuracy    <       0.02495032 Ry

     total magnetization       =     1.61 Bohr mag/cell
     absolute magnetization    =     1.67 Bohr mag/cell

     iteration #  4     ecut=    30.00 Ry     beta= 0.70
     Davidson diagonalization with overlap
     ethr =  2.77E-04,  avg # of iterations =  1.0

     total cpu time spent up to now is        5.4 secs

     total energy              =     -74.18178346 Ry
     Harris-Foulkes estimate   =     -74.18184332 Ry
     estimated scf accuracy    <       0.00300419 Ry

     total magnetization       =     1.18 Bohr mag/cell
     absolute magnetization    =     1.27 Bohr mag/cell

     iteration #  5     ecut=    30.00 Ry     beta= 0.70
     Davidson diagonalization with overlap
     ethr =  3.34E-05,  avg # of iterations =  1.2

     total cpu time spent up to now is        6.2 secs

     total energy              =     -74.18352415 Ry
     Harris-Foulkes estimate   =     -74.18183818 Ry
     estimated scf accuracy    <       0.00314130 Ry

     total magnetization       =     1.18 Bohr mag/cell
     absolute magnetization    =     1.27 Bohr mag/cell

     iteration #  6     ecut=    30.00 Ry     beta= 0.70
     Davidson diagonalization with overlap
     ethr =  3.34E-05,  avg # of iterations =  1.8

     total cpu time spent up to now is        7.0 secs

     total energy              =     -74.18848119 Ry
     Harris-Foulkes estimate   =     -74.18473684 Ry
     estimated scf accuracy    <       0.01106064 Ry

     total magnetization       =     1.10 Bohr mag/cell
     absolute magnetization    =     1.19 Bohr mag/cell

     iteration #  7     ecut=    30.00 Ry     beta= 0.70
     Davidson diagonalization with overlap
     ethr =  3.34E-05,  avg # of iterations =  2.4

     total cpu time spent up to now is        8.1 secs

     total energy              =     -74.21674388 Ry
     Harris-Foulkes estimate   =     -74.20905830 Ry
     estimated scf accuracy    <       0.07313645 Ry

     total magnetization       =     0.35 Bohr mag/cell
     absolute magnetization    =     0.41 Bohr mag/cell

     iteration #  8     ecut=    30.00 Ry     beta= 0.70
     Davidson diagonalization with overlap
     ethr =  3.34E-05,  avg # of iterations =  1.0

     total cpu time spent up to now is        8.9 secs

     total energy              =     -74.18045315 Ry
     Harris-Foulkes estimate   =     -74.21728729 Ry
     estimated scf accuracy    <       0.09944079 Ry

     total magnetization       =     0.27 Bohr mag/cell
     absolute magnetization    =     0.33 Bohr mag/cell

     iteration #  9     ecut=    30.00 Ry     beta= 0.70
     Davidson diagonalization with overlap
     ethr =  3.34E-05,  avg # of iterations =  2.4

     total cpu time spent up to now is       10.0 secs

     total energy              =     -74.18402194 Ry
     Harris-Foulkes estimate   =     -74.19450828 Ry
     estimated scf accuracy    <       0.02123753 Ry

     total magnetization       =    -0.24 Bohr mag/cell
     absolute magnetization    =     0.24 Bohr mag/cell

     iteration # 10     ecut=    30.00 Ry     beta= 0.70
     Davidson diagonalization with overlap
     ethr =  3.34E-05,  avg # of iterations =  2.0

     total cpu time spent up to now is       11.0 secs

     total energy              =     -74.18775861 Ry
     Harris-Foulkes estimate   =     -74.18862723 Ry
     estimated scf accuracy    <       0.00091068 Ry

     total magnetization       =     0.06 Bohr mag/cell
     absolute magnetization    =     0.07 Bohr mag/cell

     iteration # 11     ecut=    30.00 Ry     beta= 0.70
     Davidson diagonalization with overlap
     ethr =  1.01E-05,  avg # of iterations =  1.6

     total cpu time spent up to now is       11.9 secs

     total energy              =     -74.18855275 Ry
     Harris-Foulkes estimate   =     -74.18852740 Ry
     estimated scf accuracy    <       0.00050695 Ry

     total magnetization       =    -0.05 Bohr mag/cell
     absolute magnetization    =     0.05 Bohr mag/cell

     iteration # 12     ecut=    30.00 Ry     beta= 0.70
     Davidson diagonalization with overlap
     ethr =  5.63E-06,  avg # of iterations =  1.0

     total cpu time spent up to now is       12.7 secs

     total energy              =     -74.18836504 Ry
     Harris-Foulkes estimate   =     -74.18859490 Ry
     estimated scf accuracy    <       0.00080844 Ry

     total magnetization       =    -0.08 Bohr mag/cell
     absolute magnetization    =     0.09 Bohr mag/cell

     iteration # 13     ecut=    30.00 Ry     beta= 0.70
     Davidson diagonalization with overlap
     ethr =  5.63E-06,  avg # of iterations =  1.0

     total cpu time spent up to now is       13.5 secs

     total energy              =     -74.18832968 Ry
     Harris-Foulkes estimate   =     -74.18840965 Ry
     estimated scf accuracy    <       0.00017212 Ry

     total magnetization       =    -0.08 Bohr mag/cell
     absolute magnetization    =     0.09 Bohr mag/cell

     iteration # 14     ecut=    30.00 Ry     beta= 0.70
     Davidson diagonalization with overlap
     ethr =  1.91E-06,  avg # of iterations =  1.5

     total cpu time spent up to now is       14.3 secs

     total energy              =     -74.18823520 Ry
     Harris-Foulkes estimate   =     -74.18837669 Ry
     estimated scf accuracy    <       0.00000716 Ry

     total magnetization       =    -0.07 Bohr mag/cell
     absolute magnetization    =     0.07 Bohr mag/cell

     iteration # 15     ecut=    30.00 Ry     beta= 0.70
     Davidson diagonalization with overlap
     ethr =  7.95E-08,  avg # of iterations =  2.1

     total cpu time spent up to now is       15.2 secs

     total energy              =     -74.18839023 Ry
     Harris-Foulkes estimate   =     -74.18839493 Ry
     estimated scf accuracy    <       0.00000112 Ry

     total magnetization       =     0.01 Bohr mag/cell
     absolute magnetization    =     0.01 Bohr mag/cell

     iteration # 16     ecut=    30.00 Ry     beta= 0.70
     Davidson diagonalization with overlap
     ethr =  1.25E-08,  avg # of iterations =  1.5

     total cpu time spent up to now is       16.1 secs

     total energy              =     -74.18839489 Ry
     Harris-Foulkes estimate   =     -74.18839555 Ry
     estimated scf accuracy    <       0.00000002 Ry

     total magnetization       =    -0.00 Bohr mag/cell
     absolute magnetization    =     0.00 Bohr mag/cell

     iteration # 17     ecut=    30.00 Ry     beta= 0.70
     Davidson diagonalization with overlap
     ethr =  2.37E-10,  avg # of iterations =  2.9

     Magnetic moment per site:
     atom:    1    charge:    7.4575    magn:    0.0022    constr:    0.0000

     total cpu time spent up to now is       17.2 secs

     End of self-consistent calculation

     Number of k-points >= 100: set verbosity='high' to print the bands.

     the Fermi energy is    20.5537 ev

!    total energy              =     -74.18839557 Ry
     Harris-Foulkes estimate   =     -74.18839557 Ry
     estimated scf accuracy    <          6.5E-09 Ry

     The total energy is the sum of the following terms:

     one-electron contribution =      12.27736810 Ry
     hartree contribution      =       8.30072846 Ry
     xc contribution           =     -32.66324184 Ry
     ewald contribution        =     -62.10264683 Ry
     smearing contrib. (-TS)   =      -0.00060346 Ry

     total magnetization       =     0.00 Bohr mag/cell
     absolute magnetization    =     0.00 Bohr mag/cell

     convergence has been achieved in  17 iterations

     Forces acting on atoms (cartesian axes, Ry/au):

     atom    1 type  1   force =     0.00000000    0.00000000    0.00000000

     Total force =     0.000000     Total SCF correction =     0.000000


     Computing stress (Cartesian axis) and pressure

          total   stress  (Ry/bohr**3)                   (kbar)     P=  901.20
   0.00612625  -0.00000000  -0.00000000        901.20     -0.00     -0.00
  -0.00000000   0.00612625  -0.00000000         -0.00    901.20     -0.00
  -0.00000000  -0.00000000   0.00612625         -0.00     -0.00    901.20


     Writing output data file Co.FCC.save/

     init_run     :      1.08s CPU      1.14s WALL (       1 calls)
     electrons    :     15.10s CPU     15.79s WALL (       1 calls)
     forces       :      0.19s CPU      0.19s WALL (       1 calls)
     stress       :      0.43s CPU      0.44s WALL (       1 calls)

     Called by init_run:
     wfcinit      :      0.23s CPU      0.25s WALL (       1 calls)
     potinit      :      0.02s CPU      0.02s WALL (       1 calls)
     hinit0       :      0.80s CPU      0.83s WALL (       1 calls)

     Called by electrons:
     c_bands      :     11.36s CPU     11.96s WALL (      17 calls)
     sum_band     :      2.89s CPU      2.97s WALL (      17 calls)
     v_of_rho     :      0.20s CPU      0.21s WALL (      18 calls)
     newd         :      0.61s CPU      0.62s WALL (      18 calls)
     mix_rho      :      0.05s CPU      0.05s WALL (      17 calls)

     Called by c_bands:
     init_us_2    :      0.58s CPU      0.62s WALL (    5328 calls)
     cegterg      :     10.54s CPU     11.09s WALL (    2448 calls)

     Called by sum_band:
     sum_band:bec :      0.09s CPU      0.09s WALL (    2448 calls)
     addusdens    :      1.10s CPU      1.12s WALL (      17 calls)

     Called by *egterg:
     h_psi        :      5.56s CPU      5.86s WALL (    7077 calls)
     s_psi        :      0.78s CPU      0.82s WALL (    7077 calls)
     g_psi        :      0.04s CPU      0.04s WALL (    4485 calls)
     cdiaghg      :      1.86s CPU      1.96s WALL (    6933 calls)

     Called by h_psi:
     h_psi:pot    :      5.52s CPU      5.81s WALL (    7077 calls)
     h_psi:calbec :      0.85s CPU      0.89s WALL (    7077 calls)
     vloc_psi     :      3.87s CPU      4.07s WALL (    7077 calls)
     add_vuspsi   :      0.77s CPU      0.81s WALL (    7077 calls)

     General routines
     calbec       :      1.26s CPU      1.32s WALL (   10245 calls)
     fft          :      0.12s CPU      0.12s WALL (     202 calls)
     ffts         :      0.00s CPU      0.00s WALL (      70 calls)
     fftw         :      2.84s CPU      2.98s WALL (  127950 calls)
     interpolate  :      0.02s CPU      0.02s WALL (      36 calls)

     Parallel routines

     PWSCF        :     17.12s CPU     17.91s WALL


   This run was terminated on:   8:55:10  19Feb2020            

=------------------------------------------------------------------------------=
   JOB DONE.
=------------------------------------------------------------------------------=
