     Message from routine get_command_line:
     unexpected argument # 2     :-input

     Program PWSCF v.6.4.1 starts on 19Feb2020 at  6:35:11 

     This program is part of the open-source Quantum ESPRESSO suite
     for quantum simulation of materials; please cite
         "P. Giannozzi et al., J. Phys.:Condens. Matter 21 395502 (2009);
         "P. Giannozzi et al., J. Phys.:Condens. Matter 29 465901 (2017);
          URL http://www.quantum-espresso.org", 
     in publications or presentations arising from this work. More details at
     http://www.quantum-espresso.org/quote

     Parallel version (MPI), running on     1 processors

     MPI processes distributed on     1 nodes
     Waiting for input...
     Reading input from standard input
     Message from routine read_cards :
     DEPRECATED: no units specified in ATOMIC_POSITIONS card
     Message from routine read_cards :
     ATOMIC_POSITIONS: units set to alat

     Current dimensions of program PWSCF are:
     Max number of different atomic species (ntypx) = 10
     Max number of k-points (npk) =  40000
     Max angular momentum in pseudopotentials (lmaxx) =  3
               file Co.pz-nd-rrkjus.UPF: wavefunction(s)  4S 3D renormalized

     Subspace diagonalization in iterative solution of the eigenvalue problem:
     a serial algorithm will be used


     G-vector sticks info
     --------------------
     sticks:   dense  smooth     PW     G-vecs:    dense   smooth      PW
     Sum         367     169     61                 4645     1471     339



     bravais-lattice index     =            2
     lattice parameter (alat)  =       6.5400  a.u.
     unit-cell volume          =      69.9316 (a.u.)^3
     number of atoms/cell      =            1
     number of atomic types    =            1
     number of electrons       =         9.00
     number of Kohn-Sham states=            9
     kinetic-energy cutoff     =      30.0000  Ry
     charge density cutoff     =     250.0000  Ry
     convergence threshold     =      1.0E-08
     mixing beta               =       0.7000
     number of iterations used =            8  plain     mixing
     Exchange-correlation      =  SLA  PZ   NOGX NOGC ( 1  1  0  0 0 0)

     celldm(1)=   6.540000  celldm(2)=   0.000000  celldm(3)=   0.000000
     celldm(4)=   0.000000  celldm(5)=   0.000000  celldm(6)=   0.000000

     crystal axes: (cart. coord. in units of alat)
               a(1) = (  -0.500000   0.000000   0.500000 )  
               a(2) = (   0.000000   0.500000   0.500000 )  
               a(3) = (  -0.500000   0.500000   0.000000 )  

     reciprocal axes: (cart. coord. in units 2 pi/alat)
               b(1) = ( -1.000000 -1.000000  1.000000 )  
               b(2) = (  1.000000  1.000000  1.000000 )  
               b(3) = ( -1.000000  1.000000 -1.000000 )  


     PseudoPot. # 1 for Co read from file:
     ./Co.pz-nd-rrkjus.UPF
     MD5 check sum: c80159f6ca3a93d3df3cfc6468bb3c3d
     Pseudo is Ultrasoft + core correction, Zval =  9.0
     Generated by new atomic code, or converted to UPF format
     Using radial grid of  961 points,  6 beta functions with: 
                l(1) =   0
                l(2) =   0
                l(3) =   1
                l(4) =   1
                l(5) =   2
                l(6) =   2
     Q(r) pseudized with 0 coefficients 


     atomic species   valence    mass     pseudopotential
        Co             9.00    58.93300     Co( 1.00)

     Starting magnetic structure 
     atomic species   magnetization
        Co           0.700

     48 Sym. Ops., with inversion, found



   Cartesian axes

     site n.     atom                  positions (alat units)
         1           Co  tau(   1) = (   0.0000000   0.0000000   0.0000000  )

     number of k points=    72  Marzari-Vanderbilt smearing, width (Ry)=  0.0300
                       cart. coord. in units 2pi/alat
        k(    1) = (   0.0000000   0.0000000   0.0000000), wk =   0.0005787
        k(    2) = (  -0.0833333   0.0833333  -0.0833333), wk =   0.0046296
        k(    3) = (  -0.1666667   0.1666667  -0.1666667), wk =   0.0046296
        k(    4) = (  -0.2500000   0.2500000  -0.2500000), wk =   0.0046296
        k(    5) = (  -0.3333333   0.3333333  -0.3333333), wk =   0.0046296
        k(    6) = (  -0.4166667   0.4166667  -0.4166667), wk =   0.0046296
        k(    7) = (   0.5000000  -0.5000000   0.5000000), wk =   0.0023148
        k(    8) = (   0.0000000   0.1666667   0.0000000), wk =   0.0034722
        k(    9) = (  -0.0833333   0.2500000  -0.0833333), wk =   0.0138889
        k(   10) = (  -0.1666667   0.3333333  -0.1666667), wk =   0.0138889
        k(   11) = (  -0.2500000   0.4166667  -0.2500000), wk =   0.0138889
        k(   12) = (  -0.3333333   0.5000000  -0.3333333), wk =   0.0138889
        k(   13) = (   0.5833333  -0.4166667   0.5833333), wk =   0.0138889
        k(   14) = (   0.5000000  -0.3333333   0.5000000), wk =   0.0138889
        k(   15) = (   0.4166667  -0.2500000   0.4166667), wk =   0.0138889
        k(   16) = (   0.3333333  -0.1666667   0.3333333), wk =   0.0138889
        k(   17) = (   0.2500000  -0.0833333   0.2500000), wk =   0.0138889
        k(   18) = (   0.1666667  -0.0000000   0.1666667), wk =   0.0069444
        k(   19) = (   0.0000000   0.3333333   0.0000000), wk =   0.0034722
        k(   20) = (  -0.0833333   0.4166667  -0.0833333), wk =   0.0138889
        k(   21) = (  -0.1666667   0.5000000  -0.1666667), wk =   0.0138889
        k(   22) = (  -0.2500000   0.5833333  -0.2500000), wk =   0.0138889
        k(   23) = (   0.6666667  -0.3333333   0.6666667), wk =   0.0138889
        k(   24) = (   0.5833333  -0.2500000   0.5833333), wk =   0.0138889
        k(   25) = (   0.5000000  -0.1666667   0.5000000), wk =   0.0138889
        k(   26) = (   0.4166667  -0.0833333   0.4166667), wk =   0.0138889
        k(   27) = (   0.3333333   0.0000000   0.3333333), wk =   0.0069444
        k(   28) = (   0.0000000   0.5000000   0.0000000), wk =   0.0034722
        k(   29) = (  -0.0833333   0.5833333  -0.0833333), wk =   0.0138889
        k(   30) = (  -0.1666667   0.6666667  -0.1666667), wk =   0.0138889
        k(   31) = (   0.7500000  -0.2500000   0.7500000), wk =   0.0138889
        k(   32) = (   0.6666667  -0.1666667   0.6666667), wk =   0.0138889
        k(   33) = (   0.5833333  -0.0833333   0.5833333), wk =   0.0138889
        k(   34) = (   0.5000000   0.0000000   0.5000000), wk =   0.0069444
        k(   35) = (   0.0000000   0.6666667   0.0000000), wk =   0.0034722
        k(   36) = (  -0.0833333   0.7500000  -0.0833333), wk =   0.0138889
        k(   37) = (   0.8333333  -0.1666667   0.8333333), wk =   0.0138889
        k(   38) = (   0.7500000  -0.0833333   0.7500000), wk =   0.0138889
        k(   39) = (   0.6666667  -0.0000000   0.6666667), wk =   0.0069444
        k(   40) = (   0.0000000   0.8333333   0.0000000), wk =   0.0034722
        k(   41) = (   0.9166667  -0.0833333   0.9166667), wk =   0.0138889
        k(   42) = (   0.8333333   0.0000000   0.8333333), wk =   0.0069444
        k(   43) = (   0.0000000  -1.0000000   0.0000000), wk =   0.0017361
        k(   44) = (  -0.1666667   0.3333333   0.0000000), wk =   0.0138889
        k(   45) = (  -0.2500000   0.4166667  -0.0833333), wk =   0.0277778
        k(   46) = (  -0.3333333   0.5000000  -0.1666667), wk =   0.0277778
        k(   47) = (   0.5833333  -0.4166667   0.7500000), wk =   0.0277778
        k(   48) = (   0.5000000  -0.3333333   0.6666667), wk =   0.0138889
        k(   49) = (  -0.1666667   0.5000000   0.0000000), wk =   0.0138889
        k(   50) = (  -0.2500000   0.5833333  -0.0833333), wk =   0.0277778
        k(   51) = (   0.6666667  -0.3333333   0.8333333), wk =   0.0277778
        k(   52) = (   0.5833333  -0.2500000   0.7500000), wk =   0.0277778
        k(   53) = (   0.5000000  -0.1666667   0.6666667), wk =   0.0277778
        k(   54) = (   0.4166667  -0.0833333   0.5833333), wk =   0.0277778
        k(   55) = (   0.3333333   0.0000000   0.5000000), wk =   0.0138889
        k(   56) = (  -0.1666667   0.6666667  -0.0000000), wk =   0.0138889
        k(   57) = (   0.7500000  -0.2500000   0.9166667), wk =   0.0277778
        k(   58) = (   0.6666667  -0.1666667   0.8333333), wk =   0.0277778
        k(   59) = (   0.5833333  -0.0833333   0.7500000), wk =   0.0277778
        k(   60) = (   0.5000000   0.0000000   0.6666667), wk =   0.0138889
        k(   61) = (   0.8333333  -0.1666667   1.0000000), wk =   0.0138889
        k(   62) = (   0.7500000  -0.0833333   0.9166667), wk =   0.0277778
        k(   63) = (   0.6666667   0.0000000   0.8333333), wk =   0.0138889
        k(   64) = (  -0.1666667  -1.0000000  -0.0000000), wk =   0.0069444
        k(   65) = (   0.6666667  -0.3333333   1.0000000), wk =   0.0138889
        k(   66) = (   0.5833333  -0.2500000   0.9166667), wk =   0.0277778
        k(   67) = (   0.5000000  -0.1666667   0.8333333), wk =   0.0138889
        k(   68) = (   0.6666667  -0.1666667   1.0000000), wk =   0.0138889
        k(   69) = (   0.5833333  -0.0833333   0.9166667), wk =   0.0277778
        k(   70) = (   0.5000000   0.0000000   0.8333333), wk =   0.0138889
        k(   71) = (  -0.3333333  -1.0000000   0.0000000), wk =   0.0069444
        k(   72) = (  -0.5000000  -1.0000000   0.0000000), wk =   0.0034722

     Dense  grid:     4645 G-vectors     FFT dimensions: (  24,  24,  24)

     Smooth grid:     1471 G-vectors     FFT dimensions: (  18,  18,  18)

     Estimated max dynamical RAM per process >      24.39 MB
     Generating pointlists ...
     new r_m :   0.2917 (alat units)  1.9076 (a.u.) for type    1

     Check: negative core charge=   -0.000022

     Initial potential from superposition of free atoms

     starting charge    8.99962, renormalised to    9.00000
     Starting wfcs are    6 randomized atomic wfcs +    3 random wfcs

     total cpu time spent up to now is        2.1 secs

     Self-consistent Calculation

     iteration #  1     ecut=    30.00 Ry     beta= 0.70
     Davidson diagonalization with overlap
     ethr =  1.00E-02,  avg # of iterations =  4.3

     total cpu time spent up to now is        5.7 secs

     total energy              =     -73.95511386 Ry
     Harris-Foulkes estimate   =     -74.07857386 Ry
     estimated scf accuracy    <       0.59201711 Ry

     total magnetization       =     2.50 Bohr mag/cell
     absolute magnetization    =     2.50 Bohr mag/cell

     iteration #  2     ecut=    30.00 Ry     beta= 0.70
     Davidson diagonalization with overlap
     ethr =  6.58E-03,  avg # of iterations =  2.0

     total cpu time spent up to now is        8.3 secs

     total energy              =     -74.06957128 Ry
     Harris-Foulkes estimate   =     -74.34980358 Ry
     estimated scf accuracy    <       0.69965535 Ry

     total magnetization       =     1.66 Bohr mag/cell
     absolute magnetization    =     1.73 Bohr mag/cell

     iteration #  3     ecut=    30.00 Ry     beta= 0.70
     Davidson diagonalization with overlap
     ethr =  6.58E-03,  avg # of iterations =  1.2

     total cpu time spent up to now is       10.6 secs

     total energy              =     -74.21658041 Ry
     Harris-Foulkes estimate   =     -74.20155723 Ry
     estimated scf accuracy    <       0.02116413 Ry

     total magnetization       =     1.83 Bohr mag/cell
     absolute magnetization    =     1.92 Bohr mag/cell

     iteration #  4     ecut=    30.00 Ry     beta= 0.70
     Davidson diagonalization with overlap
     ethr =  2.35E-04,  avg # of iterations =  1.7

     total cpu time spent up to now is       13.1 secs

     total energy              =     -74.22189177 Ry
     Harris-Foulkes estimate   =     -74.22188080 Ry
     estimated scf accuracy    <       0.00020814 Ry

     total magnetization       =     1.64 Bohr mag/cell
     absolute magnetization    =     1.76 Bohr mag/cell

     iteration #  5     ecut=    30.00 Ry     beta= 0.70
     Davidson diagonalization with overlap
     ethr =  2.31E-06,  avg # of iterations =  3.2

     total cpu time spent up to now is       16.9 secs

     total energy              =     -74.22209551 Ry
     Harris-Foulkes estimate   =     -74.22210920 Ry
     estimated scf accuracy    <       0.00005138 Ry

     total magnetization       =     1.65 Bohr mag/cell
     absolute magnetization    =     1.76 Bohr mag/cell

     iteration #  6     ecut=    30.00 Ry     beta= 0.70
     Davidson diagonalization with overlap
     ethr =  5.71E-07,  avg # of iterations =  1.6

     total cpu time spent up to now is       19.4 secs

     total energy              =     -74.22211573 Ry
     Harris-Foulkes estimate   =     -74.22212834 Ry
     estimated scf accuracy    <       0.00003162 Ry

     total magnetization       =     1.64 Bohr mag/cell
     absolute magnetization    =     1.75 Bohr mag/cell

     iteration #  7     ecut=    30.00 Ry     beta= 0.70
     Davidson diagonalization with overlap
     ethr =  3.51E-07,  avg # of iterations =  1.2

     total cpu time spent up to now is       21.9 secs

     total energy              =     -74.22212100 Ry
     Harris-Foulkes estimate   =     -74.22212103 Ry
     estimated scf accuracy    <       0.00000015 Ry

     total magnetization       =     1.64 Bohr mag/cell
     absolute magnetization    =     1.75 Bohr mag/cell

     iteration #  8     ecut=    30.00 Ry     beta= 0.70
     Davidson diagonalization with overlap
     ethr =  1.63E-09,  avg # of iterations =  2.7

     total cpu time spent up to now is       25.0 secs

     total energy              =     -74.22212112 Ry
     Harris-Foulkes estimate   =     -74.22212112 Ry
     estimated scf accuracy    <       0.00000001 Ry

     total magnetization       =     1.64 Bohr mag/cell
     absolute magnetization    =     1.75 Bohr mag/cell

     iteration #  9     ecut=    30.00 Ry     beta= 0.70
     Davidson diagonalization with overlap
     ethr =  1.55E-10,  avg # of iterations =  1.1

     Magnetic moment per site:
     atom:    1    charge:    7.6342    magn:    1.6935    constr:    0.0000

     total cpu time spent up to now is       27.3 secs

     End of self-consistent calculation

     Number of k-points >= 100: set verbosity='high' to print the bands.

     the Fermi energy is    14.7182 ev

!    total energy              =     -74.22212112 Ry
     Harris-Foulkes estimate   =     -74.22212112 Ry
     estimated scf accuracy    <          4.3E-09 Ry

     The total energy is the sum of the following terms:

     one-electron contribution =       4.70417459 Ry
     hartree contribution      =      10.31033143 Ry
     xc contribution           =     -32.45384850 Ry
     ewald contribution        =     -56.78498900 Ry
     smearing contrib. (-TS)   =       0.00221036 Ry

     total magnetization       =     1.64 Bohr mag/cell
     absolute magnetization    =     1.75 Bohr mag/cell

     convergence has been achieved in   9 iterations

     Forces acting on atoms (cartesian axes, Ry/au):

     atom    1 type  1   force =     0.00000000    0.00000000    0.00000000

     Total force =     0.000000     Total SCF correction =     0.000000


     Computing stress (Cartesian axis) and pressure

          total   stress  (Ry/bohr**3)                   (kbar)     P=  -74.08
  -0.00050362   0.00000000   0.00000000        -74.08      0.00      0.00
   0.00000000  -0.00050362  -0.00000000          0.00    -74.08     -0.00
   0.00000000  -0.00000000  -0.00050362          0.00     -0.00    -74.08


     Writing output data file Co.FCC.save/

     init_run     :      1.75s CPU      1.83s WALL (       1 calls)
     electrons    :     24.78s CPU     25.23s WALL (       1 calls)
     forces       :      0.25s CPU      0.25s WALL (       1 calls)
     stress       :      0.61s CPU      0.62s WALL (       1 calls)

     Called by init_run:
     wfcinit      :      0.80s CPU      0.84s WALL (       1 calls)
     potinit      :      0.03s CPU      0.04s WALL (       1 calls)
     hinit0       :      0.87s CPU      0.89s WALL (       1 calls)

     Called by electrons:
     c_bands      :     19.24s CPU     19.64s WALL (       9 calls)
     sum_band     :      4.94s CPU      4.99s WALL (       9 calls)
     v_of_rho     :      0.13s CPU      0.13s WALL (      10 calls)
     newd         :      0.46s CPU      0.48s WALL (      10 calls)
     mix_rho      :      0.03s CPU      0.03s WALL (       9 calls)

     Called by c_bands:
     init_us_2    :      0.47s CPU      0.48s WALL (    3024 calls)
     cegterg      :     18.63s CPU     19.01s WALL (    1296 calls)

     Called by sum_band:
     sum_band:bec :      0.05s CPU      0.05s WALL (    1296 calls)
     addusdens    :      0.84s CPU      0.85s WALL (       9 calls)

     Called by *egterg:
     h_psi        :     15.44s CPU     15.77s WALL (    4173 calls)
     s_psi        :      0.59s CPU      0.60s WALL (    4173 calls)
     g_psi        :      0.03s CPU      0.03s WALL (    2733 calls)
     cdiaghg      :      1.33s CPU      1.37s WALL (    4029 calls)

     Called by h_psi:
     h_psi:pot    :     15.41s CPU     15.74s WALL (    4173 calls)
     h_psi:calbec :      0.67s CPU      0.68s WALL (    4173 calls)
     vloc_psi     :     14.11s CPU     14.42s WALL (    4173 calls)
     add_vuspsi   :      0.60s CPU      0.61s WALL (    4173 calls)

     General routines
     calbec       :      1.04s CPU      1.06s WALL (    6189 calls)
     fft          :      0.08s CPU      0.08s WALL (     114 calls)
     ffts         :      0.05s CPU      0.05s WALL (      38 calls)
     fftw         :     15.57s CPU     15.90s WALL (   70688 calls)
     interpolate  :      0.04s CPU      0.04s WALL (      20 calls)

     Parallel routines

     PWSCF        :     27.72s CPU     28.28s WALL


   This run was terminated on:   6:35:39  19Feb2020            

=------------------------------------------------------------------------------=
   JOB DONE.
=------------------------------------------------------------------------------=
