     Message from routine get_command_line:
     unexpected argument # 2     :-input

     Program PWSCF v.6.4.1 starts on 19Feb2020 at  6:28:39 

     This program is part of the open-source Quantum ESPRESSO suite
     for quantum simulation of materials; please cite
         "P. Giannozzi et al., J. Phys.:Condens. Matter 21 395502 (2009);
         "P. Giannozzi et al., J. Phys.:Condens. Matter 29 465901 (2017);
          URL http://www.quantum-espresso.org", 
     in publications or presentations arising from this work. More details at
     http://www.quantum-espresso.org/quote

     Parallel version (MPI), running on     1 processors

     MPI processes distributed on     1 nodes
     Waiting for input...
     Reading input from standard input
     Message from routine read_cards :
     DEPRECATED: no units specified in ATOMIC_POSITIONS card
     Message from routine read_cards :
     ATOMIC_POSITIONS: units set to alat

     Current dimensions of program PWSCF are:
     Max number of different atomic species (ntypx) = 10
     Max number of k-points (npk) =  40000
     Max angular momentum in pseudopotentials (lmaxx) =  3
               file Co.pz-nd-rrkjus.UPF: wavefunction(s)  4S 3D renormalized

     Subspace diagonalization in iterative solution of the eigenvalue problem:
     a serial algorithm will be used


     G-vector sticks info
     --------------------
     sticks:   dense  smooth     PW     G-vecs:    dense   smooth      PW
     Sum         313     151     61                 3767     1243     307



     bravais-lattice index     =            2
     lattice parameter (alat)  =       6.1000  a.u.
     unit-cell volume          =      56.7452 (a.u.)^3
     number of atoms/cell      =            1
     number of atomic types    =            1
     number of electrons       =         9.00
     number of Kohn-Sham states=            9
     kinetic-energy cutoff     =      30.0000  Ry
     charge density cutoff     =     250.0000  Ry
     convergence threshold     =      1.0E-08
     mixing beta               =       0.7000
     number of iterations used =            8  plain     mixing
     Exchange-correlation      =  SLA  PZ   NOGX NOGC ( 1  1  0  0 0 0)

     celldm(1)=   6.100000  celldm(2)=   0.000000  celldm(3)=   0.000000
     celldm(4)=   0.000000  celldm(5)=   0.000000  celldm(6)=   0.000000

     crystal axes: (cart. coord. in units of alat)
               a(1) = (  -0.500000   0.000000   0.500000 )  
               a(2) = (   0.000000   0.500000   0.500000 )  
               a(3) = (  -0.500000   0.500000   0.000000 )  

     reciprocal axes: (cart. coord. in units 2 pi/alat)
               b(1) = ( -1.000000 -1.000000  1.000000 )  
               b(2) = (  1.000000  1.000000  1.000000 )  
               b(3) = ( -1.000000  1.000000 -1.000000 )  


     PseudoPot. # 1 for Co read from file:
     ./Co.pz-nd-rrkjus.UPF
     MD5 check sum: c80159f6ca3a93d3df3cfc6468bb3c3d
     Pseudo is Ultrasoft + core correction, Zval =  9.0
     Generated by new atomic code, or converted to UPF format
     Using radial grid of  961 points,  6 beta functions with: 
                l(1) =   0
                l(2) =   0
                l(3) =   1
                l(4) =   1
                l(5) =   2
                l(6) =   2
     Q(r) pseudized with 0 coefficients 


     atomic species   valence    mass     pseudopotential
        Co             9.00    58.93300     Co( 1.00)

     Starting magnetic structure 
     atomic species   magnetization
        Co           0.700

     48 Sym. Ops., with inversion, found



   Cartesian axes

     site n.     atom                  positions (alat units)
         1           Co  tau(   1) = (   0.0000000   0.0000000   0.0000000  )

     number of k points=    72  Marzari-Vanderbilt smearing, width (Ry)=  0.0300
                       cart. coord. in units 2pi/alat
        k(    1) = (   0.0000000   0.0000000   0.0000000), wk =   0.0005787
        k(    2) = (  -0.0833333   0.0833333  -0.0833333), wk =   0.0046296
        k(    3) = (  -0.1666667   0.1666667  -0.1666667), wk =   0.0046296
        k(    4) = (  -0.2500000   0.2500000  -0.2500000), wk =   0.0046296
        k(    5) = (  -0.3333333   0.3333333  -0.3333333), wk =   0.0046296
        k(    6) = (  -0.4166667   0.4166667  -0.4166667), wk =   0.0046296
        k(    7) = (   0.5000000  -0.5000000   0.5000000), wk =   0.0023148
        k(    8) = (   0.0000000   0.1666667   0.0000000), wk =   0.0034722
        k(    9) = (  -0.0833333   0.2500000  -0.0833333), wk =   0.0138889
        k(   10) = (  -0.1666667   0.3333333  -0.1666667), wk =   0.0138889
        k(   11) = (  -0.2500000   0.4166667  -0.2500000), wk =   0.0138889
        k(   12) = (  -0.3333333   0.5000000  -0.3333333), wk =   0.0138889
        k(   13) = (   0.5833333  -0.4166667   0.5833333), wk =   0.0138889
        k(   14) = (   0.5000000  -0.3333333   0.5000000), wk =   0.0138889
        k(   15) = (   0.4166667  -0.2500000   0.4166667), wk =   0.0138889
        k(   16) = (   0.3333333  -0.1666667   0.3333333), wk =   0.0138889
        k(   17) = (   0.2500000  -0.0833333   0.2500000), wk =   0.0138889
        k(   18) = (   0.1666667  -0.0000000   0.1666667), wk =   0.0069444
        k(   19) = (   0.0000000   0.3333333   0.0000000), wk =   0.0034722
        k(   20) = (  -0.0833333   0.4166667  -0.0833333), wk =   0.0138889
        k(   21) = (  -0.1666667   0.5000000  -0.1666667), wk =   0.0138889
        k(   22) = (  -0.2500000   0.5833333  -0.2500000), wk =   0.0138889
        k(   23) = (   0.6666667  -0.3333333   0.6666667), wk =   0.0138889
        k(   24) = (   0.5833333  -0.2500000   0.5833333), wk =   0.0138889
        k(   25) = (   0.5000000  -0.1666667   0.5000000), wk =   0.0138889
        k(   26) = (   0.4166667  -0.0833333   0.4166667), wk =   0.0138889
        k(   27) = (   0.3333333   0.0000000   0.3333333), wk =   0.0069444
        k(   28) = (   0.0000000   0.5000000   0.0000000), wk =   0.0034722
        k(   29) = (  -0.0833333   0.5833333  -0.0833333), wk =   0.0138889
        k(   30) = (  -0.1666667   0.6666667  -0.1666667), wk =   0.0138889
        k(   31) = (   0.7500000  -0.2500000   0.7500000), wk =   0.0138889
        k(   32) = (   0.6666667  -0.1666667   0.6666667), wk =   0.0138889
        k(   33) = (   0.5833333  -0.0833333   0.5833333), wk =   0.0138889
        k(   34) = (   0.5000000   0.0000000   0.5000000), wk =   0.0069444
        k(   35) = (   0.0000000   0.6666667   0.0000000), wk =   0.0034722
        k(   36) = (  -0.0833333   0.7500000  -0.0833333), wk =   0.0138889
        k(   37) = (   0.8333333  -0.1666667   0.8333333), wk =   0.0138889
        k(   38) = (   0.7500000  -0.0833333   0.7500000), wk =   0.0138889
        k(   39) = (   0.6666667  -0.0000000   0.6666667), wk =   0.0069444
        k(   40) = (   0.0000000   0.8333333   0.0000000), wk =   0.0034722
        k(   41) = (   0.9166667  -0.0833333   0.9166667), wk =   0.0138889
        k(   42) = (   0.8333333   0.0000000   0.8333333), wk =   0.0069444
        k(   43) = (   0.0000000  -1.0000000   0.0000000), wk =   0.0017361
        k(   44) = (  -0.1666667   0.3333333   0.0000000), wk =   0.0138889
        k(   45) = (  -0.2500000   0.4166667  -0.0833333), wk =   0.0277778
        k(   46) = (  -0.3333333   0.5000000  -0.1666667), wk =   0.0277778
        k(   47) = (   0.5833333  -0.4166667   0.7500000), wk =   0.0277778
        k(   48) = (   0.5000000  -0.3333333   0.6666667), wk =   0.0138889
        k(   49) = (  -0.1666667   0.5000000   0.0000000), wk =   0.0138889
        k(   50) = (  -0.2500000   0.5833333  -0.0833333), wk =   0.0277778
        k(   51) = (   0.6666667  -0.3333333   0.8333333), wk =   0.0277778
        k(   52) = (   0.5833333  -0.2500000   0.7500000), wk =   0.0277778
        k(   53) = (   0.5000000  -0.1666667   0.6666667), wk =   0.0277778
        k(   54) = (   0.4166667  -0.0833333   0.5833333), wk =   0.0277778
        k(   55) = (   0.3333333   0.0000000   0.5000000), wk =   0.0138889
        k(   56) = (  -0.1666667   0.6666667  -0.0000000), wk =   0.0138889
        k(   57) = (   0.7500000  -0.2500000   0.9166667), wk =   0.0277778
        k(   58) = (   0.6666667  -0.1666667   0.8333333), wk =   0.0277778
        k(   59) = (   0.5833333  -0.0833333   0.7500000), wk =   0.0277778
        k(   60) = (   0.5000000   0.0000000   0.6666667), wk =   0.0138889
        k(   61) = (   0.8333333  -0.1666667   1.0000000), wk =   0.0138889
        k(   62) = (   0.7500000  -0.0833333   0.9166667), wk =   0.0277778
        k(   63) = (   0.6666667   0.0000000   0.8333333), wk =   0.0138889
        k(   64) = (  -0.1666667  -1.0000000  -0.0000000), wk =   0.0069444
        k(   65) = (   0.6666667  -0.3333333   1.0000000), wk =   0.0138889
        k(   66) = (   0.5833333  -0.2500000   0.9166667), wk =   0.0277778
        k(   67) = (   0.5000000  -0.1666667   0.8333333), wk =   0.0138889
        k(   68) = (   0.6666667  -0.1666667   1.0000000), wk =   0.0138889
        k(   69) = (   0.5833333  -0.0833333   0.9166667), wk =   0.0277778
        k(   70) = (   0.5000000   0.0000000   0.8333333), wk =   0.0138889
        k(   71) = (  -0.3333333  -1.0000000   0.0000000), wk =   0.0069444
        k(   72) = (  -0.5000000  -1.0000000   0.0000000), wk =   0.0034722

     Dense  grid:     3767 G-vectors     FFT dimensions: (  24,  24,  24)

     Smooth grid:     1243 G-vectors     FFT dimensions: (  15,  15,  15)

     Estimated max dynamical RAM per process >      20.22 MB
     Generating pointlists ...
     new r_m :   0.2917 (alat units)  1.7793 (a.u.) for type    1

     Check: negative core charge=   -0.000008

     Initial potential from superposition of free atoms

     starting charge    8.99962, renormalised to    9.00000
     Starting wfcs are    6 randomized atomic wfcs +    3 random wfcs

     total cpu time spent up to now is        1.4 secs

     Self-consistent Calculation

     iteration #  1     ecut=    30.00 Ry     beta= 0.70
     Davidson diagonalization with overlap
     ethr =  1.00E-02,  avg # of iterations =  4.3

     total cpu time spent up to now is        2.9 secs

     total energy              =     -73.98742445 Ry
     Harris-Foulkes estimate   =     -74.00623738 Ry
     estimated scf accuracy    <       0.53444846 Ry

     total magnetization       =     2.29 Bohr mag/cell
     absolute magnetization    =     2.29 Bohr mag/cell

     iteration #  2     ecut=    30.00 Ry     beta= 0.70
     Davidson diagonalization with overlap
     ethr =  5.94E-03,  avg # of iterations =  2.0

     total cpu time spent up to now is        3.8 secs

     total energy              =     -74.10174787 Ry
     Harris-Foulkes estimate   =     -74.24728420 Ry
     estimated scf accuracy    <       0.36771504 Ry

     total magnetization       =     1.66 Bohr mag/cell
     absolute magnetization    =     1.71 Bohr mag/cell

     iteration #  3     ecut=    30.00 Ry     beta= 0.70
     Davidson diagonalization with overlap
     ethr =  4.09E-03,  avg # of iterations =  1.3

     total cpu time spent up to now is        4.6 secs

     total energy              =     -74.19371579 Ry
     Harris-Foulkes estimate   =     -74.18157084 Ry
     estimated scf accuracy    <       0.02367964 Ry

     total magnetization       =     1.68 Bohr mag/cell
     absolute magnetization    =     1.74 Bohr mag/cell

     iteration #  4     ecut=    30.00 Ry     beta= 0.70
     Davidson diagonalization with overlap
     ethr =  2.63E-04,  avg # of iterations =  1.1

     total cpu time spent up to now is        5.4 secs

     total energy              =     -74.20078773 Ry
     Harris-Foulkes estimate   =     -74.20034482 Ry
     estimated scf accuracy    <       0.00143654 Ry

     total magnetization       =     1.33 Bohr mag/cell
     absolute magnetization    =     1.42 Bohr mag/cell

     iteration #  5     ecut=    30.00 Ry     beta= 0.70
     Davidson diagonalization with overlap
     ethr =  1.60E-05,  avg # of iterations =  1.8

     total cpu time spent up to now is        6.3 secs

     total energy              =     -74.19723635 Ry
     Harris-Foulkes estimate   =     -74.20101705 Ry
     estimated scf accuracy    <       0.00119220 Ry

     total magnetization       =     1.26 Bohr mag/cell
     absolute magnetization    =     1.35 Bohr mag/cell

     iteration #  6     ecut=    30.00 Ry     beta= 0.70
     Davidson diagonalization with overlap
     ethr =  1.32E-05,  avg # of iterations =  1.7

     total cpu time spent up to now is        7.2 secs

     total energy              =     -74.20338377 Ry
     Harris-Foulkes estimate   =     -74.20369410 Ry
     estimated scf accuracy    <       0.00099182 Ry

     total magnetization       =     0.79 Bohr mag/cell
     absolute magnetization    =     0.84 Bohr mag/cell

     iteration #  7     ecut=    30.00 Ry     beta= 0.70
     Davidson diagonalization with overlap
     ethr =  1.10E-05,  avg # of iterations =  1.2

     total cpu time spent up to now is        8.0 secs

     total energy              =     -74.19981616 Ry
     Harris-Foulkes estimate   =     -74.20360183 Ry
     estimated scf accuracy    <       0.00011389 Ry

     total magnetization       =     0.74 Bohr mag/cell
     absolute magnetization    =     0.79 Bohr mag/cell

     iteration #  8     ecut=    30.00 Ry     beta= 0.70
     Davidson diagonalization with overlap
     ethr =  1.27E-06,  avg # of iterations =  2.9

     total cpu time spent up to now is        9.3 secs

     total energy              =     -74.20437177 Ry
     Harris-Foulkes estimate   =     -74.20432790 Ry
     estimated scf accuracy    <       0.00026814 Ry

     total magnetization       =     0.32 Bohr mag/cell
     absolute magnetization    =     0.33 Bohr mag/cell

     iteration #  9     ecut=    30.00 Ry     beta= 0.70
     Davidson diagonalization with overlap
     ethr =  1.27E-06,  avg # of iterations =  1.0

     total cpu time spent up to now is       10.1 secs

     total energy              =     -74.20407870 Ry
     Harris-Foulkes estimate   =     -74.20437424 Ry
     estimated scf accuracy    <       0.00038609 Ry

     total magnetization       =     0.32 Bohr mag/cell
     absolute magnetization    =     0.34 Bohr mag/cell

     iteration # 10     ecut=    30.00 Ry     beta= 0.70
     Davidson diagonalization with overlap
     ethr =  1.27E-06,  avg # of iterations =  1.5

     total cpu time spent up to now is       11.0 secs

     total energy              =     -74.20433537 Ry
     Harris-Foulkes estimate   =     -74.20433618 Ry
     estimated scf accuracy    <       0.00001662 Ry

     total magnetization       =     0.23 Bohr mag/cell
     absolute magnetization    =     0.24 Bohr mag/cell

     iteration # 11     ecut=    30.00 Ry     beta= 0.70
     Davidson diagonalization with overlap
     ethr =  1.85E-07,  avg # of iterations =  1.3

     total cpu time spent up to now is       11.8 secs

     total energy              =     -74.20435222 Ry
     Harris-Foulkes estimate   =     -74.20435202 Ry
     estimated scf accuracy    <       0.00001250 Ry

     total magnetization       =     0.20 Bohr mag/cell
     absolute magnetization    =     0.21 Bohr mag/cell

     iteration # 12     ecut=    30.00 Ry     beta= 0.70
     Davidson diagonalization with overlap
     ethr =  1.39E-07,  avg # of iterations =  1.0

     total cpu time spent up to now is       12.6 secs

     total energy              =     -74.20435834 Ry
     Harris-Foulkes estimate   =     -74.20436315 Ry
     estimated scf accuracy    <       0.00001017 Ry

     total magnetization       =     0.18 Bohr mag/cell
     absolute magnetization    =     0.19 Bohr mag/cell

     iteration # 13     ecut=    30.00 Ry     beta= 0.70
     Davidson diagonalization with overlap
     ethr =  1.13E-07,  avg # of iterations =  1.0

     total cpu time spent up to now is       13.4 secs

     total energy              =     -74.20378115 Ry
     Harris-Foulkes estimate   =     -74.20435976 Ry
     estimated scf accuracy    <       0.00001172 Ry

     total magnetization       =     0.19 Bohr mag/cell
     absolute magnetization    =     0.20 Bohr mag/cell

     iteration # 14     ecut=    30.00 Ry     beta= 0.70
     Davidson diagonalization with overlap
     ethr =  1.13E-07,  avg # of iterations =  2.9

     total cpu time spent up to now is       14.6 secs

     total energy              =     -74.20437974 Ry
     Harris-Foulkes estimate   =     -74.20440554 Ry
     estimated scf accuracy    <       0.00000136 Ry

     total magnetization       =     0.03 Bohr mag/cell
     absolute magnetization    =     0.03 Bohr mag/cell

     iteration # 15     ecut=    30.00 Ry     beta= 0.70
     Davidson diagonalization with overlap
     ethr =  1.51E-08,  avg # of iterations =  2.4

     total cpu time spent up to now is       15.6 secs

     total energy              =     -74.20440265 Ry
     Harris-Foulkes estimate   =     -74.20440748 Ry
     estimated scf accuracy    <       0.00000002 Ry

     total magnetization       =    -0.01 Bohr mag/cell
     absolute magnetization    =     0.01 Bohr mag/cell

     iteration # 16     ecut=    30.00 Ry     beta= 0.70
     Davidson diagonalization with overlap
     ethr =  2.51E-10,  avg # of iterations =  3.0

     total cpu time spent up to now is       16.9 secs

     total energy              =     -74.20440768 Ry
     Harris-Foulkes estimate   =     -74.20440792 Ry
     estimated scf accuracy    <       0.00000005 Ry

     total magnetization       =     0.01 Bohr mag/cell
     absolute magnetization    =     0.01 Bohr mag/cell

     iteration # 17     ecut=    30.00 Ry     beta= 0.70
     Davidson diagonalization with overlap
     ethr =  2.51E-10,  avg # of iterations =  2.1

     total cpu time spent up to now is       17.9 secs

     total energy              =     -74.20440786 Ry
     Harris-Foulkes estimate   =     -74.20440798 Ry
     estimated scf accuracy    <       0.00000002 Ry

     total magnetization       =     0.00 Bohr mag/cell
     absolute magnetization    =     0.00 Bohr mag/cell

     iteration # 18     ecut=    30.00 Ry     beta= 0.70
     Davidson diagonalization with overlap
     ethr =  1.71E-10,  avg # of iterations =  2.0

     Magnetic moment per site:
     atom:    1    charge:    7.4968    magn:    0.0022    constr:    0.0000

     total cpu time spent up to now is       18.8 secs

     End of self-consistent calculation

     Number of k-points >= 100: set verbosity='high' to print the bands.

     the Fermi energy is    19.0872 ev

!    total energy              =     -74.20440801 Ry
     Harris-Foulkes estimate   =     -74.20440801 Ry
     estimated scf accuracy    <          1.0E-09 Ry

     The total energy is the sum of the following terms:

     one-electron contribution =      10.54968466 Ry
     hartree contribution      =       8.71511707 Ry
     xc contribution           =     -32.58740517 Ry
     ewald contribution        =     -60.88095541 Ry
     smearing contrib. (-TS)   =      -0.00084916 Ry

     total magnetization       =     0.00 Bohr mag/cell
     absolute magnetization    =     0.00 Bohr mag/cell

     convergence has been achieved in  18 iterations

     Forces acting on atoms (cartesian axes, Ry/au):

     atom    1 type  1   force =     0.00000000    0.00000000    0.00000000

     Total force =     0.000000     Total SCF correction =     0.000000


     Computing stress (Cartesian axis) and pressure

          total   stress  (Ry/bohr**3)                   (kbar)     P=  537.20
   0.00365181   0.00000000  -0.00000000        537.20      0.00     -0.00
   0.00000000   0.00365181  -0.00000000          0.00    537.20     -0.00
  -0.00000000  -0.00000000   0.00365181         -0.00     -0.00    537.20


     Writing output data file Co.FCC.save/

     init_run     :      1.12s CPU      1.17s WALL (       1 calls)
     electrons    :     16.80s CPU     17.39s WALL (       1 calls)
     forces       :      0.21s CPU      0.21s WALL (       1 calls)
     stress       :      0.46s CPU      0.46s WALL (       1 calls)

     Called by init_run:
     wfcinit      :      0.24s CPU      0.26s WALL (       1 calls)
     potinit      :      0.02s CPU      0.02s WALL (       1 calls)
     hinit0       :      0.80s CPU      0.82s WALL (       1 calls)

     Called by electrons:
     c_bands      :     12.72s CPU     13.22s WALL (      18 calls)
     sum_band     :      3.15s CPU      3.23s WALL (      18 calls)
     v_of_rho     :      0.22s CPU      0.22s WALL (      19 calls)
     newd         :      0.69s CPU      0.70s WALL (      19 calls)
     mix_rho      :      0.05s CPU      0.05s WALL (      18 calls)

     Called by c_bands:
     init_us_2    :      0.64s CPU      0.67s WALL (    5616 calls)
     cegterg      :     11.80s CPU     12.26s WALL (    2592 calls)

     Called by sum_band:
     sum_band:bec :      0.09s CPU      0.09s WALL (    2592 calls)
     addusdens    :      1.24s CPU      1.25s WALL (      18 calls)

     Called by *egterg:
     h_psi        :      6.12s CPU      6.37s WALL (    7716 calls)
     s_psi        :      0.86s CPU      0.90s WALL (    7716 calls)
     g_psi        :      0.04s CPU      0.05s WALL (    4980 calls)
     cdiaghg      :      2.09s CPU      2.17s WALL (    7572 calls)

     Called by h_psi:
     h_psi:pot    :      6.07s CPU      6.32s WALL (    7716 calls)
     h_psi:calbec :      0.98s CPU      1.02s WALL (    7716 calls)
     vloc_psi     :      4.16s CPU      4.33s WALL (    7716 calls)
     add_vuspsi   :      0.88s CPU      0.93s WALL (    7716 calls)

     General routines
     calbec       :      1.43s CPU      1.48s WALL (   11028 calls)
     fft          :      0.12s CPU      0.13s WALL (     213 calls)
     ffts         :      0.00s CPU      0.00s WALL (      74 calls)
     fftw         :      3.08s CPU      3.20s WALL (  137074 calls)
     interpolate  :      0.02s CPU      0.02s WALL (      38 calls)

     Parallel routines

     PWSCF        :     18.93s CPU     19.60s WALL


   This run was terminated on:   6:28:59  19Feb2020            

=------------------------------------------------------------------------------=
   JOB DONE.
=------------------------------------------------------------------------------=
