
     Program BANDS v.6.4.1 starts on 21Jan2020 at  5:11:46 

     This program is part of the open-source Quantum ESPRESSO suite
     for quantum simulation of materials; please cite
         "P. Giannozzi et al., J. Phys.:Condens. Matter 21 395502 (2009);
         "P. Giannozzi et al., J. Phys.:Condens. Matter 29 465901 (2017);
          URL http://www.quantum-espresso.org", 
     in publications or presentations arising from this work. More details at
     http://www.quantum-espresso.org/quote

     Parallel version (MPI), running on     1 processors

     MPI processes distributed on     1 nodes

     Reading data from directory:
     ./basic.save/
     Message from routine volume:
     axis vectors are left-handed
     Message from routine volume:
     axis vectors are left-handed

     IMPORTANT: XC functional enforced from input :
     Exchange-correlation      = PBE ( 1  4  3  4 0 0)
     Any further DFT definition will be discarded
     Please, verify this is what you really want

               file Si.pbe-n-kjpaw_psl.1.0.0.UPF: wavefunction(s)  3S 3P renormalized

     G-vector sticks info
     --------------------
     sticks:   dense  smooth     PW     G-vecs:    dense   smooth      PW
     Sum         733     733    211                12939    12939    2109

     high-symmetry point:  0.0000 0.0000 0.0000   x coordinate   0.0000
     high-symmetry point:  0.0000 1.0000 0.0000   x coordinate   1.0000
     high-symmetry point:  0.0000 1.0000 0.5000   x coordinate   1.5000
     high-symmetry point:  0.0000 0.7500 0.7500   x coordinate   1.8536
     high-symmetry point:  0.0000 0.0000 0.0000   x coordinate   2.9142
     high-symmetry point:  0.5000 0.5000 0.5000   x coordinate   3.7802
     high-symmetry point:  0.2500 1.0000 0.2500   x coordinate   4.3926
     high-symmetry point:  0.0000 1.0000 0.5000   x coordinate   4.7462
     high-symmetry point:  0.5000 0.5000 0.5000   x coordinate   5.4533
     high-symmetry point:  0.0000 0.7500 0.7500   x coordinate   6.0656
     high-symmetry point:  0.0000 1.0000 0.0000   x coordinate   6.8562

     Plottable bands (eV) written to file siliconbands.dat.gnu
     Bands written to file siliconbands.dat

 **************************************************************************

                    xk=(   0.00000,   0.00000,   0.00000  )

     point group O_h (m-3m) 
     there are 10 classes
     the character table:

       E     8C3   3C2   6C4   6C2'  i     8S6   3s_h  6S4   6s_d 
A_1g   1.00  1.00  1.00  1.00  1.00  1.00  1.00  1.00  1.00  1.00
A_2g   1.00  1.00  1.00 -1.00 -1.00  1.00  1.00  1.00 -1.00 -1.00
E_g    2.00 -1.00  2.00  0.00  0.00  2.00 -1.00  2.00  0.00  0.00
T_1g   3.00  0.00 -1.00  1.00 -1.00  3.00  0.00 -1.00  1.00 -1.00
T_2g   3.00  0.00 -1.00 -1.00  1.00  3.00  0.00 -1.00 -1.00  1.00
A_1u   1.00  1.00  1.00  1.00  1.00 -1.00 -1.00 -1.00 -1.00 -1.00
A_2u   1.00  1.00  1.00 -1.00 -1.00 -1.00 -1.00 -1.00  1.00  1.00
E_u    2.00 -1.00  2.00  0.00  0.00 -2.00  1.00 -2.00  0.00  0.00
T_1u   3.00  0.00 -1.00  1.00 -1.00 -3.00  0.00  1.00 -1.00  1.00
T_2u   3.00  0.00 -1.00 -1.00  1.00 -3.00  0.00  1.00  1.00 -1.00

     the symmetry operations in each class and the name of the first element:

     E        1
                                                                 
     8C3     17   19   20   18   24   21   22   23
                                                                 
     3C2      2    4    3
                                                                 
     6C4      7    8   15   16   12   11
                                                                 
     6C2'     5    6   14   13   10    9
                                                                 
     i       25
                                                                 
     8S6     41   43   44   42   48   45   46   47
                                                                 
     3s_h    26   28   27
                                                                 
     6S4     31   32   39   40   36   35
                                                                 
     6s_d    29   30   38   37   34   33
                                                                 

     Band symmetry, O_h (m-3m)  point group:

     e(  1 -  1) =     -5.75805  eV     1   --> A_1g G_1   G_1+
     e(  2 -  4) =      6.20588  eV     3   --> T_2g G_25' G_5+
     e(  5 -  7) =      8.76719  eV     3   --> T_1u G_15  G_4-
     e(  8 -  8) =      9.56549  eV     1   --> A_2u G_2'  G_2-
     e(  9 - 10) =     13.92981  eV     2   --> E_u  G_12' G_3-

 **************************************************************************

 **************************************************************************

                    xk=(   0.00000,   0.03333,   0.00000  )

     point group C_4v (4mm) 
     there are  5 classes
     the character table:

       E     2C4   C2    2s_v  2s_d 
A_1    1.00  1.00  1.00  1.00  1.00
A_2    1.00  1.00  1.00 -1.00 -1.00
B_1    1.00 -1.00  1.00  1.00 -1.00
B_2    1.00 -1.00  1.00 -1.00  1.00
E      2.00  0.00 -2.00  0.00  0.00

     the symmetry operations in each class and the name of the first element:

     E        1
                                                                 
     2C4      3    4
                                                                 
     C2       2
                                                                 
     2s_v     5    6
                                                                 
     2s_d     7    8
                                                                 

     Band symmetry, C_4v (4mm)  point group:

     e(  1 -  1) =     -5.75318  eV     1   --> A_1  G_1 D_1   
     e(  2 -  2) =      6.17232  eV     1   --> B_2  G_4 D_2'  
     e(  3 -  4) =      6.18470  eV     2   --> E    G_5 D_5   
     e(  5 -  5) =      8.75507  eV     1   --> A_1  G_1 D_1   
     e(  6 -  7) =      8.79436  eV     2   --> E    G_5 D_5   
     e(  8 -  8) =      9.59838  eV     1   --> B_2  G_4 D_2'  
     e(  9 -  9) =     13.88958  eV     1   --> B_2  G_4 D_2'  
     e( 10 - 10) =     13.93520  eV     1   --> A_2  G_2 D_1'  

 **************************************************************************

 **************************************************************************

                    xk=(   0.00000,   0.06667,   0.00000  )

     Band symmetry, C_4v (4mm)  point group:

     e(  1 -  1) =     -5.73859  eV     1   --> A_1  G_1 D_1   
     e(  2 -  2) =      6.07558  eV     1   --> B_2  G_4 D_2'  
     e(  3 -  4) =      6.12380  eV     2   --> E    G_5 D_5   
     e(  5 -  5) =      8.71937  eV     1   --> A_1  G_1 D_1   
     e(  6 -  7) =      8.87324  eV     2   --> E    G_5 D_5   
     e(  8 -  8) =      9.69253  eV     1   --> B_2  G_4 D_2'  
     e(  9 -  9) =     13.77507  eV     1   --> B_2  G_4 D_2'  
     e( 10 - 10) =     13.95136  eV     1   --> A_2  G_2 D_1'  

 **************************************************************************

 **************************************************************************

                    xk=(   0.00000,   0.10000,   0.00000  )

     Band symmetry, C_4v (4mm)  point group:

     e(  1 -  1) =     -5.71428  eV     1   --> A_1  G_1 D_1   
     e(  2 -  2) =      5.92548  eV     1   --> B_2  G_4 D_2'  
     e(  3 -  4) =      6.02988  eV     2   --> E    G_5 D_5   
     e(  5 -  5) =      8.66195  eV     1   --> A_1  G_1 D_1   
     e(  6 -  7) =      8.99707  eV     2   --> E    G_5 D_5   
     e(  8 -  8) =      9.83609  eV     1   --> B_2  G_4 D_2'  
     e(  9 -  9) =     13.60226  eV     1   --> B_2  G_4 D_2'  
     e( 10 - 10) =     13.97830  eV     1   --> A_2  G_2 D_1'  

 **************************************************************************

 **************************************************************************

                    xk=(   0.00000,   0.13333,   0.00000  )

     Band symmetry, C_4v (4mm)  point group:

     e(  1 -  1) =     -5.68027  eV     1   --> A_1  G_1 D_1   
     e(  2 -  2) =      5.73381  eV     1   --> B_2  G_4 D_2'  
     e(  3 -  4) =      5.91116  eV     2   --> E    G_5 D_5   
     e(  5 -  5) =      8.58555  eV     1   --> A_1  G_1 D_1   
     e(  6 -  7) =      9.15757  eV     2   --> E    G_5 D_5   
     e(  8 -  8) =     10.01329  eV     1   --> B_2  G_4 D_2'  
     e(  9 -  9) =     13.39186  eV     1   --> B_2  G_4 D_2'  
     e( 10 - 10) =     14.01600  eV     1   --> A_2  G_2 D_1'  

 **************************************************************************

 **************************************************************************

                    xk=(   0.00000,   0.16667,   0.00000  )

     Band symmetry, C_4v (4mm)  point group:

     e(  1 -  1) =     -5.63658  eV     1   --> A_1  G_1 D_1   
     e(  2 -  2) =      5.51130  eV     1   --> B_2  G_4 D_2'  
     e(  3 -  4) =      5.77532  eV     2   --> E    G_5 D_5   
     e(  5 -  5) =      8.49342  eV     1   --> A_1  G_1 D_1   
     e(  6 -  7) =      9.34697  eV     2   --> E    G_5 D_5   
     e(  8 -  8) =     10.20612  eV     1   --> B_2  G_4 D_2'  
     e(  9 -  9) =     13.16640  eV     1   --> B_2  G_4 D_2'  
     e( 10 - 10) =     14.06446  eV     1   --> A_2  G_2 D_1'  

 **************************************************************************

 **************************************************************************

                    xk=(   0.00000,   0.20000,   0.00000  )

     Band symmetry, C_4v (4mm)  point group:

     e(  1 -  1) =     -5.58323  eV     1   --> A_1  G_1 D_1   
     e(  2 -  2) =      5.26649  eV     1   --> B_2  G_4 D_2'  
     e(  3 -  4) =      5.62863  eV     2   --> E    G_5 D_5   
     e(  5 -  5) =      8.38900  eV     1   --> A_1  G_1 D_1   
     e(  6 -  7) =      9.55890  eV     2   --> E    G_5 D_5   
     e(  8 -  8) =     10.39324  eV     1   --> B_2  G_4 D_2'  
     e(  9 -  9) =     12.95104  eV     1   --> B_2  G_4 D_2'  
     e( 10 - 10) =     14.12371  eV     1   --> A_2  G_2 D_1'  

 **************************************************************************

 **************************************************************************

                    xk=(   0.00000,   0.23333,   0.00000  )

     Band symmetry, C_4v (4mm)  point group:

     e(  1 -  1) =     -5.52026  eV     1   --> A_1  G_1 D_1   
     e(  2 -  2) =      5.00566  eV     1   --> B_2  G_4 D_2'  
     e(  3 -  4) =      5.47585  eV     2   --> E    G_5 D_5   
     e(  5 -  5) =      8.27557  eV     1   --> A_1  G_1 D_1   
     e(  6 -  7) =      9.78844  eV     2   --> E    G_5 D_5   
     e(  8 -  8) =     10.54672  eV     1   --> B_2  G_4 D_2'  
     e(  9 -  9) =     12.77670  eV     1   --> B_2  G_4 D_2'  
     e( 10 - 10) =     14.19369  eV     1   --> A_2  G_2 D_1'  

 **************************************************************************

 **************************************************************************

                    xk=(   0.00000,   0.26667,   0.00000  )

     Band symmetry, C_4v (4mm)  point group:

     e(  1 -  1) =     -5.44770  eV     1   --> A_1  G_1 D_1   
     e(  2 -  2) =      4.73331  eV     1   --> B_2  G_4 D_2'  
     e(  3 -  4) =      5.32052  eV     2   --> E    G_5 D_5   
     e(  5 -  5) =      8.15617  eV     1   --> A_1  G_1 D_1   
     e(  6 -  7) =     10.03196  eV     2   --> E    G_5 D_5   
     e(  8 -  8) =     10.63142  eV     1   --> B_2  G_4 D_2'  
     e(  9 -  9) =     12.68085  eV     1   --> B_2  G_4 D_2'  
     e( 10 - 10) =     14.27442  eV     1   --> A_2  G_2 D_1'  

 **************************************************************************

 **************************************************************************

                    xk=(   0.00000,   0.30000,   0.00000  )

     Band symmetry, C_4v (4mm)  point group:

     e(  1 -  1) =     -5.36561  eV     1   --> A_1  G_1 D_1   
     e(  2 -  2) =      4.45265  eV     1   --> B_2  G_4 D_2'  
     e(  3 -  4) =      5.16523  eV     2   --> E    G_5 D_5   
     e(  5 -  5) =      8.03347  eV     1   --> A_1  G_1 D_1   
     e(  6 -  7) =     10.28668  eV     2   --> E    G_5 D_5   
     e(  8 -  8) =     10.61799  eV     1   --> B_2  G_4 D_2'  
     e(  9 -  9) =     12.69463  eV     1   --> B_2  G_4 D_2'  
     e( 10 - 10) =     14.36588  eV     1   --> A_2  G_2 D_1'  

 **************************************************************************

 **************************************************************************

                    xk=(   0.00000,   0.33333,   0.00000  )

     Band symmetry, C_4v (4mm)  point group:

     e(  1 -  1) =     -5.27403  eV     1   --> A_1  G_1 D_1   
     e(  2 -  2) =      4.16592  eV     1   --> B_2  G_4 D_2'  
     e(  3 -  4) =      5.01189  eV     2   --> E    G_5 D_5   
     e(  5 -  5) =      7.90978  eV     1   --> A_1  G_1 D_1   
     e(  6 -  6) =     10.50584  eV     1   --> B_2  G_4 D_2'  
     e(  7 -  8) =     10.55056  eV     2   --> E    G_5 D_5   
     e(  9 -  9) =     12.81997  eV     1   --> B_2  G_4 D_2'  
     e( 10 - 10) =     14.46807  eV     1   --> A_2  G_2 D_1'  

 **************************************************************************

 **************************************************************************

                    xk=(   0.00000,   0.36667,   0.00000  )

     Band symmetry, C_4v (4mm)  point group:

     e(  1 -  1) =     -5.17304  eV     1   --> A_1  G_1 D_1   
     e(  2 -  2) =      3.87478  eV     1   --> B_2  G_4 D_2'  
     e(  3 -  4) =      4.86196  eV     2   --> E    G_5 D_5   
     e(  5 -  5) =      7.78706  eV     1   --> A_1  G_1 D_1   
     e(  6 -  6) =     10.32156  eV     1   --> B_2  G_4 D_2'  
     e(  7 -  8) =     10.82200  eV     2   --> E    G_5 D_5   
     e(  9 -  9) =     13.03121  eV     1   --> B_2  G_4 D_2'  
     e( 10 - 10) =     14.58098  eV     1   --> A_2  G_2 D_1'  

 **************************************************************************

 **************************************************************************

                    xk=(   0.00000,   0.40000,   0.00000  )

     Band symmetry, C_4v (4mm)  point group:

     e(  1 -  1) =     -5.06268  eV     1   --> A_1  G_1 D_1   
     e(  2 -  2) =      3.58044  eV     1   --> B_2  G_4 D_2'  
     e(  3 -  4) =      4.71652  eV     2   --> E    G_5 D_5   
     e(  5 -  5) =      7.66700  eV     1   --> A_1  G_1 D_1   
     e(  6 -  6) =     10.09526  eV     1   --> B_2  G_4 D_2'  
     e(  7 -  8) =     11.09981  eV     2   --> E    G_5 D_5   
     e(  9 -  9) =     13.29891  eV     1   --> B_2  G_4 D_2'  
     e( 10 - 10) =     14.70461  eV     1   --> A_2  G_2 D_1'  

 **************************************************************************

 **************************************************************************

                    xk=(   0.00000,   0.43333,   0.00000  )

     Band symmetry, C_4v (4mm)  point group:

     e(  1 -  1) =     -4.94305  eV     1   --> A_1  G_1 D_1   
     e(  2 -  2) =      3.28379  eV     1   --> B_2  G_4 D_2'  
     e(  3 -  4) =      4.57641  eV     2   --> E    G_5 D_5   
     e(  5 -  5) =      7.55097  eV     1   --> A_1  G_1 D_1   
     e(  6 -  6) =      9.84832  eV     1   --> B_2  G_4 D_2'  
     e(  7 -  8) =     11.38299  eV     2   --> E    G_5 D_5   
     e(  9 -  9) =     13.60207  eV     1   --> B_2  G_4 D_2'  
     e( 10 - 10) =     14.83891  eV     1   --> A_2  G_2 D_1'  

 **************************************************************************

 **************************************************************************

                    xk=(   0.00000,   0.46667,   0.00000  )

     Band symmetry, C_4v (4mm)  point group:

     e(  1 -  1) =     -4.81422  eV     1   --> A_1  G_1 D_1   
     e(  2 -  2) =      2.98557  eV     1   --> B_2  G_4 D_2'  
     e(  3 -  4) =      4.44229  eV     2   --> E    G_5 D_5   
     e(  5 -  5) =      7.44018  eV     1   --> A_1  G_1 D_1   
     e(  6 -  6) =      9.59386  eV     1   --> B_2  G_4 D_2'  
     e(  7 -  8) =     11.67082  eV     2   --> E    G_5 D_5   
     e(  9 -  9) =     13.92769  eV     1   --> B_2  G_4 D_2'  
     e( 10 - 10) =     14.98389  eV     1   --> A_2  G_2 D_1'  

 **************************************************************************

 **************************************************************************

                    xk=(   0.00000,   0.50000,   0.00000  )

     Band symmetry, C_4v (4mm)  point group:

     e(  1 -  1) =     -4.67630  eV     1   --> A_1  G_1 D_1   
     e(  2 -  2) =      2.68636  eV     1   --> B_2  G_4 D_2'  
     e(  3 -  4) =      4.31470  eV     2   --> E    G_5 D_5   
     e(  5 -  5) =      7.33563  eV     1   --> A_1  G_1 D_1   
     e(  6 -  6) =      9.33982  eV     1   --> B_2  G_4 D_2'  
     e(  7 -  8) =     11.96268  eV     2   --> E    G_5 D_5   
     e(  9 -  9) =     14.26773  eV     1   --> B_2  G_4 D_2'  
     e( 10 - 10) =     15.13952  eV     1   --> A_2  G_2 D_1'  

 **************************************************************************

 **************************************************************************

                    xk=(   0.00000,   0.53333,   0.00000  )

     Band symmetry, C_4v (4mm)  point group:

     e(  1 -  1) =     -4.52937  eV     1   --> A_1  G_1 D_1   
     e(  2 -  2) =      2.38666  eV     1   --> B_2  G_4 D_2'  
     e(  3 -  4) =      4.19404  eV     2   --> E    G_5 D_5   
     e(  5 -  5) =      7.23818  eV     1   --> A_1  G_1 D_1   
     e(  6 -  6) =      9.09112  eV     1   --> B_2  G_4 D_2'  
     e(  7 -  8) =     12.25811  eV     2   --> E    G_5 D_5   
     e(  9 -  9) =     14.61701  eV     1   --> B_2  G_4 D_2'  
     e( 10 - 10) =     15.30580  eV     1   --> A_2  G_2 D_1'  

 **************************************************************************

 **************************************************************************

                    xk=(   0.00000,   0.56667,   0.00000  )

     Band symmetry, C_4v (4mm)  point group:

     e(  1 -  1) =     -4.37356  eV     1   --> A_1  G_1 D_1   
     e(  2 -  2) =      2.08695  eV     1   --> B_2  G_4 D_2'  
     e(  3 -  4) =      4.08067  eV     2   --> E    G_5 D_5   
     e(  5 -  5) =      7.14856  eV     1   --> A_1  G_1 D_1   
     e(  6 -  6) =      8.85089  eV     1   --> B_2  G_4 D_2'  
     e(  7 -  8) =     12.55674  eV     2   --> E    G_5 D_5   
     e(  9 -  9) =     14.97195  eV     1   --> B_2  G_4 D_2'  
     e( 10 - 10) =     15.48269  eV     1   --> A_2  G_2 D_1'  

 **************************************************************************

 **************************************************************************

                    xk=(   0.00000,   0.60000,   0.00000  )

     Band symmetry, C_4v (4mm)  point group:

     e(  1 -  1) =     -4.20899  eV     1   --> A_1  G_1 D_1   
     e(  2 -  2) =      1.78766  eV     1   --> B_2  G_4 D_2'  
     e(  3 -  4) =      3.97486  eV     2   --> E    G_5 D_5   
     e(  5 -  5) =      7.06742  eV     1   --> A_1  G_1 D_1   
     e(  6 -  6) =      8.62123  eV     1   --> B_2  G_4 D_2'  
     e(  7 -  8) =     12.85828  eV     2   --> E    G_5 D_5   
     e(  9 -  9) =     15.32986  eV     1   --> B_2  G_4 D_2'  
     e( 10 - 10) =     15.67016  eV     1   --> A_2  G_2 D_1'  

 **************************************************************************

 **************************************************************************

                    xk=(   0.00000,   0.63333,   0.00000  )

     Band symmetry, C_4v (4mm)  point group:

     e(  1 -  1) =     -4.03580  eV     1   --> A_1  G_1 D_1   
     e(  2 -  2) =      1.48922  eV     1   --> B_2  G_4 D_2'  
     e(  3 -  4) =      3.87686  eV     2   --> E    G_5 D_5   
     e(  5 -  5) =      6.99533  eV     1   --> A_1  G_1 D_1   
     e(  6 -  6) =      8.40350  eV     1   --> B_2  G_4 D_2'  
     e(  7 -  8) =     13.16250  eV     2   --> E    G_5 D_5   
     e(  9 -  9) =     15.68864  eV     1   --> B_2  G_4 D_2'  
     e( 10 - 10) =     15.86822  eV     1   --> A_2  G_2 D_1'  

 **************************************************************************

 **************************************************************************

                    xk=(   0.00000,   0.66667,   0.00000  )

     Band symmetry, C_4v (4mm)  point group:

     e(  1 -  1) =     -3.85412  eV     1   --> A_1  G_1 D_1   
     e(  2 -  2) =      1.19207  eV     1   --> B_2  G_4 D_2'  
     e(  3 -  4) =      3.78686  eV     2   --> E    G_5 D_5   
     e(  5 -  5) =      6.93279  eV     1   --> A_1  G_1 D_1   
     e(  6 -  6) =      8.19866  eV     1   --> B_2  G_4 D_2'  
     e(  7 -  8) =     13.46921  eV     2   --> E    G_5 D_5   
     e(  9 -  9) =     16.04656  eV     1   --> B_2  G_4 D_2'  
     e( 10 - 10) =     16.07681  eV     1   --> A_2  G_2 D_1'  

 **************************************************************************

 **************************************************************************

                    xk=(   0.00000,   0.70000,   0.00000  )

     Band symmetry, C_4v (4mm)  point group:

     e(  1 -  1) =     -3.66413  eV     1   --> A_1  G_1 D_1   
     e(  2 -  2) =      0.89663  eV     1   --> B_2  G_4 D_2'  
     e(  3 -  4) =      3.70502  eV     2   --> E    G_5 D_5   
     e(  5 -  5) =      6.88023  eV     1   --> A_1  G_1 D_1   
     e(  6 -  6) =      8.00733  eV     1   --> B_2  G_4 D_2'  
     e(  7 -  8) =     13.77823  eV     2   --> E    G_5 D_5   
     e(  9 -  9) =     16.29593  eV     1   --> A_2  G_2 D_1'  
     e( 10 - 10) =     16.40208  eV     1   --> B_2  G_4 D_2'  

 **************************************************************************

 **************************************************************************

                    xk=(   0.00000,   0.73333,   0.00000  )

     Band symmetry, C_4v (4mm)  point group:

     e(  1 -  1) =     -3.46601  eV     1   --> A_1  G_1 D_1   
     e(  2 -  2) =      0.60334  eV     1   --> B_2  G_4 D_2'  
     e(  3 -  4) =      3.63148  eV     2   --> E    G_5 D_5   
     e(  5 -  5) =      6.83808  eV     1   --> A_1  G_1 D_1   
     e(  6 -  6) =      7.82988  eV     1   --> B_2  G_4 D_2'  
     e(  7 -  8) =     14.08936  eV     2   --> E    G_5 D_5   
     e(  9 -  9) =     16.52552  eV     1   --> A_2  G_2 D_1'  
     e( 10 - 10) =     16.75386  eV     1   --> B_2  G_4 D_2'  

 **************************************************************************

 **************************************************************************

                    xk=(   0.00000,   0.76667,   0.00000  )

     Band symmetry, C_4v (4mm)  point group:

     e(  1 -  1) =     -3.25993  eV     1   --> A_1  G_1 D_1   
     e(  2 -  2) =      0.31264  eV     1   --> B_2  G_4 D_2'  
     e(  3 -  4) =      3.56635  eV     2   --> E    G_5 D_5   
     e(  5 -  5) =      6.80671  eV     1   --> A_1  G_1 D_1   
     e(  6 -  6) =      7.66652  eV     1   --> B_2  G_4 D_2'  
     e(  7 -  8) =     14.40227  eV     2   --> E    G_5 D_5   
     e(  9 -  9) =     16.76555  eV     1   --> A_2  G_2 D_1'  
     e( 10 - 10) =     17.10060  eV     1   --> B_2  G_4 D_2'  

 **************************************************************************

 **************************************************************************

                    xk=(   0.00000,   0.80000,   0.00000  )

     Band symmetry, C_4v (4mm)  point group:

     e(  1 -  1) =     -3.04610  eV     1   --> A_1  G_1 D_1   
     e(  2 -  2) =      0.02495  eV     1   --> B_2  G_4 D_2'  
     e(  3 -  4) =      3.50973  eV     2   --> E    G_5 D_5   
     e(  5 -  5) =      6.78646  eV     1   --> A_1  G_1 D_1   
     e(  6 -  6) =      7.51736  eV     1   --> B_2  G_4 D_2'  
     e(  7 -  8) =     14.71649  eV     2   --> E    G_5 D_5   
     e(  9 -  9) =     17.01598  eV     1   --> A_2  G_2 D_1'  
     e( 10 - 10) =     17.44104  eV     1   --> B_2  G_4 D_2'  

 **************************************************************************

 **************************************************************************

                    xk=(   0.00000,   0.83333,   0.00000  )

     Band symmetry, C_4v (4mm)  point group:

     e(  1 -  1) =     -2.82475  eV     1   --> A_1  G_1 D_1   
     e(  2 -  2) =     -0.25928  eV     1   --> B_2  G_4 D_2'  
     e(  3 -  4) =      3.46169  eV     2   --> E    G_5 D_5   
     e(  5 -  5) =      6.77767  eV     1   --> A_1  G_1 D_1   
     e(  6 -  6) =      7.38238  eV     1   --> B_2  G_4 D_2'  
     e(  7 -  8) =     15.03111  eV     2   --> E    G_5 D_5   
     e(  9 -  9) =     17.27678  eV     1   --> A_2  G_2 D_1'  
     e( 10 - 10) =     17.77386  eV     1   --> B_2  G_4 D_2'  

 **************************************************************************

 **************************************************************************

                    xk=(   0.00000,   0.86667,   0.00000  )

     Band symmetry, C_4v (4mm)  point group:

     e(  1 -  1) =     -2.59612  eV     1   --> A_1  G_1 D_1   
     e(  2 -  2) =     -0.53963  eV     1   --> B_2  G_4 D_2'  
     e(  3 -  4) =      3.42232  eV     2   --> E    G_5 D_5   
     e(  5 -  5) =      6.78065  eV     1   --> A_1  G_1 D_1   
     e(  6 -  6) =      7.26153  eV     1   --> B_2  G_4 D_2'  
     e(  7 -  8) =     15.34441  eV     2   --> E    G_5 D_5   
     e(  9 -  9) =     17.54790  eV     1   --> A_2  G_2 D_1'  
     e( 10 - 10) =     18.09760  eV     1   --> B_2  G_4 D_2'  

 **************************************************************************

 **************************************************************************

                    xk=(   0.00000,   0.90000,   0.00000  )

     Band symmetry, C_4v (4mm)  point group:

     e(  1 -  1) =     -2.36045  eV     1   --> A_1  G_1 D_1   
     e(  2 -  2) =     -0.81569  eV     1   --> B_2  G_4 D_2'  
     e(  3 -  4) =      3.39164  eV     2   --> E    G_5 D_5   
     e(  5 -  5) =      6.79569  eV     1   --> A_1  G_1 D_1   
     e(  6 -  6) =      7.15464  eV     1   --> B_2  G_4 D_2'  
     e(  7 -  8) =     15.65252  eV     2   --> E    G_5 D_5   
     e(  9 -  9) =     17.82927  eV     1   --> A_2  G_2 D_1'  
     e( 10 - 10) =     17.85352  eV     1   -->   ?

 **************************************************************************

 **************************************************************************

                    xk=(   0.00000,   0.93333,   0.00000  )

     Band symmetry, C_4v (4mm)  point group:

     e(  1 -  1) =     -2.11804  eV     1   --> A_1  G_1 D_1   
     e(  2 -  2) =     -1.08705  eV     1   --> B_2  G_4 D_2'  
     e(  3 -  4) =      3.36970  eV     2   --> E    G_5 D_5   
     e(  5 -  5) =      6.82309  eV     1   --> A_1  G_1 D_1   
     e(  6 -  6) =      7.06157  eV     1   --> B_2  G_4 D_2'  
     e(  7 -  8) =     15.94581  eV     2   --> E    G_5 D_5   
     e(  9 - 10) =     17.55448  eV     2   --> E    G_5 D_5   

 **************************************************************************

 **************************************************************************

                    xk=(   0.00000,   0.96667,   0.00000  )

     Band symmetry, C_4v (4mm)  point group:

     e(  1 -  1) =     -1.86917  eV     1   --> A_1  G_1 D_1   
     e(  2 -  2) =     -1.35333  eV     1   --> B_2  G_4 D_2'  
     e(  3 -  4) =      3.35652  eV     2   --> E    G_5 D_5   
     e(  5 -  5) =      6.86312  eV     1   --> A_1  G_1 D_1   
     e(  6 -  6) =      6.98211  eV     1   --> B_2  G_4 D_2'  
     e(  7 -  8) =     16.19476  eV     2   --> E    G_5 D_5   
     e(  9 - 10) =     17.30137  eV     2   --> E    G_5 D_5   

 **************************************************************************

 **************************************************************************

                    xk=(   0.00000,   1.00000,   0.00000  )

     zone border point and non-symmorphic group 
     symmetry decomposition not available

 **************************************************************************

 **************************************************************************

                    xk=(   0.00000,   1.00000,   0.01667  )

     zone border point and non-symmorphic group 
     symmetry decomposition not available

 **************************************************************************

 **************************************************************************

                    xk=(  -0.00000,   1.00000,   0.03333  )

     zone border point and non-symmorphic group 
     symmetry decomposition not available

 **************************************************************************

 **************************************************************************

                    xk=(   0.00000,   1.00000,   0.05000  )

     zone border point and non-symmorphic group 
     symmetry decomposition not available

 **************************************************************************

 **************************************************************************

                    xk=(   0.00000,   1.00000,   0.06667  )

     zone border point and non-symmorphic group 
     symmetry decomposition not available

 **************************************************************************

 **************************************************************************

                    xk=(   0.00000,   1.00000,   0.08333  )

     zone border point and non-symmorphic group 
     symmetry decomposition not available

 **************************************************************************

 **************************************************************************

                    xk=(   0.00000,   1.00000,   0.10000  )

     zone border point and non-symmorphic group 
     symmetry decomposition not available

 **************************************************************************

 **************************************************************************

                    xk=(   0.00000,   1.00000,   0.11667  )

     zone border point and non-symmorphic group 
     symmetry decomposition not available

 **************************************************************************

 **************************************************************************

                    xk=(   0.00000,   1.00000,   0.13333  )

     zone border point and non-symmorphic group 
     symmetry decomposition not available

 **************************************************************************

 **************************************************************************

                    xk=(   0.00000,   1.00000,   0.15000  )

     zone border point and non-symmorphic group 
     symmetry decomposition not available

 **************************************************************************

 **************************************************************************

                    xk=(   0.00000,   1.00000,   0.16667  )

     zone border point and non-symmorphic group 
     symmetry decomposition not available

 **************************************************************************

 **************************************************************************

                    xk=(   0.00000,   1.00000,   0.18333  )

     zone border point and non-symmorphic group 
     symmetry decomposition not available

 **************************************************************************

 **************************************************************************

                    xk=(   0.00000,   1.00000,   0.20000  )

     zone border point and non-symmorphic group 
     symmetry decomposition not available

 **************************************************************************

 **************************************************************************

                    xk=(  -0.00000,   1.00000,   0.21667  )

     zone border point and non-symmorphic group 
     symmetry decomposition not available

 **************************************************************************

 **************************************************************************

                    xk=(   0.00000,   1.00000,   0.23333  )

     zone border point and non-symmorphic group 
     symmetry decomposition not available

 **************************************************************************

 **************************************************************************

                    xk=(   0.00000,   1.00000,   0.25000  )

     zone border point and non-symmorphic group 
     symmetry decomposition not available

 **************************************************************************

 **************************************************************************

                    xk=(   0.00000,   1.00000,   0.26667  )

     zone border point and non-symmorphic group 
     symmetry decomposition not available

 **************************************************************************

 **************************************************************************

                    xk=(   0.00000,   1.00000,   0.28333  )

     zone border point and non-symmorphic group 
     symmetry decomposition not available

 **************************************************************************

 **************************************************************************

                    xk=(   0.00000,   1.00000,   0.30000  )

     zone border point and non-symmorphic group 
     symmetry decomposition not available

 **************************************************************************

 **************************************************************************

                    xk=(   0.00000,   1.00000,   0.31667  )

     zone border point and non-symmorphic group 
     symmetry decomposition not available

 **************************************************************************

 **************************************************************************

                    xk=(   0.00000,   1.00000,   0.33333  )

     zone border point and non-symmorphic group 
     symmetry decomposition not available

 **************************************************************************

 **************************************************************************

                    xk=(   0.00000,   1.00000,   0.35000  )

     zone border point and non-symmorphic group 
     symmetry decomposition not available

 **************************************************************************

 **************************************************************************

                    xk=(   0.00000,   1.00000,   0.36667  )

     zone border point and non-symmorphic group 
     symmetry decomposition not available

 **************************************************************************

 **************************************************************************

                    xk=(   0.00000,   1.00000,   0.38333  )

     zone border point and non-symmorphic group 
     symmetry decomposition not available

 **************************************************************************

 **************************************************************************

                    xk=(   0.00000,   1.00000,   0.40000  )

     zone border point and non-symmorphic group 
     symmetry decomposition not available

 **************************************************************************

 **************************************************************************

                    xk=(   0.00000,   1.00000,   0.41667  )

     zone border point and non-symmorphic group 
     symmetry decomposition not available

 **************************************************************************

 **************************************************************************

                    xk=(   0.00000,   1.00000,   0.43333  )

     zone border point and non-symmorphic group 
     symmetry decomposition not available

 **************************************************************************

 **************************************************************************

                    xk=(   0.00000,   1.00000,   0.45000  )

     zone border point and non-symmorphic group 
     symmetry decomposition not available

 **************************************************************************

 **************************************************************************

                    xk=(  -0.00000,   1.00000,   0.46667  )

     zone border point and non-symmorphic group 
     symmetry decomposition not available

 **************************************************************************

 **************************************************************************

                    xk=(  -0.00000,   1.00000,   0.48333  )

     zone border point and non-symmorphic group 
     symmetry decomposition not available

 **************************************************************************

 **************************************************************************

                    xk=(   0.00000,   1.00000,   0.50000  )

     zone border point and non-symmorphic group 
     symmetry decomposition not available

 **************************************************************************

 **************************************************************************

                    xk=(   0.00000,   0.99167,   0.50833  )

     point group C_s (m)    
     there are  2 classes
     the character table:

       E     s    
A'     1.00  1.00
A''    1.00 -1.00

     the symmetry operations in each class and the name of the first element:

     E        1
                                                                 
     s        2
                                                                 

     Band symmetry, C_s (m)     point group:

     e(  1 -  1) =     -1.48801  eV     1   --> A'             
     e(  2 -  2) =     -1.41306  eV     1   --> A''            
     e(  3 -  3) =      2.32348  eV     1   --> A'             
     e(  4 -  4) =      2.38252  eV     1   --> A''            
     e(  5 -  5) =     10.42419  eV     1   --> A''            
     e(  6 -  6) =     10.50240  eV     1   --> A'             
     e(  7 -  7) =     11.20208  eV     1   --> A''            
     e(  8 -  8) =     11.24510  eV     1   --> A'             
     e(  9 -  9) =     16.71135  eV     1   --> A'             
     e( 10 - 10) =     16.84968  eV     1   --> A''            

 **************************************************************************

 **************************************************************************

                    xk=(   0.00000,   0.98333,   0.51667  )

     Band symmetry, C_s (m)     point group:

     e(  1 -  1) =     -1.52444  eV     1   --> A'             
     e(  2 -  2) =     -1.37789  eV     1   --> A''            
     e(  3 -  3) =      2.29587  eV     1   --> A'             
     e(  4 -  4) =      2.41665  eV     1   --> A''            
     e(  5 -  5) =     10.32872  eV     1   --> A''            
     e(  6 -  6) =     10.51866  eV     1   --> A'             
     e(  7 -  7) =     11.24117  eV     1   --> A''            
     e(  8 -  8) =     11.29259  eV     1   --> A'             
     e(  9 -  9) =     16.63701  eV     1   --> A'             
     e( 10 - 10) =     16.90920  eV     1   --> A''            

 **************************************************************************

 **************************************************************************

                    xk=(   0.00000,   0.97500,   0.52500  )

     Band symmetry, C_s (m)     point group:

     e(  1 -  1) =     -1.55962  eV     1   --> A'             
     e(  2 -  2) =     -1.34482  eV     1   --> A''            
     e(  3 -  3) =      2.26910  eV     1   --> A'             
     e(  4 -  4) =      2.45422  eV     1   --> A''            
     e(  5 -  5) =     10.20752  eV     1   --> A''            
     e(  6 -  6) =     10.52776  eV     1   --> A'             
     e(  7 -  7) =     11.30912  eV     1   --> A''            
     e(  8 -  8) =     11.34914  eV     1   --> A'             
     e(  9 -  9) =     16.56012  eV     1   --> A'             
     e( 10 - 10) =     16.95969  eV     1   --> A''            

 **************************************************************************

 **************************************************************************

                    xk=(   0.00000,   0.96667,   0.53333  )

     Band symmetry, C_s (m)     point group:

     e(  1 -  1) =     -1.59354  eV     1   --> A'             
     e(  2 -  2) =     -1.31384  eV     1   --> A''            
     e(  3 -  3) =      2.24317  eV     1   --> A'             
     e(  4 -  4) =      2.49514  eV     1   --> A''            
     e(  5 -  5) =     10.07251  eV     1   --> A''            
     e(  6 -  6) =     10.53092  eV     1   --> A'             
     e(  7 -  7) =     11.39404  eV     1   --> A''            
     e(  8 -  8) =     11.41346  eV     1   --> A'             
     e(  9 -  9) =     16.48093  eV     1   --> A'             
     e( 10 - 10) =     16.99922  eV     1   --> A''            

 **************************************************************************

 **************************************************************************

                    xk=(   0.00000,   0.95833,   0.54167  )

     Band symmetry, C_s (m)     point group:

     e(  1 -  1) =     -1.62620  eV     1   --> A'             
     e(  2 -  2) =     -1.28492  eV     1   --> A''            
     e(  3 -  3) =      2.21811  eV     1   --> A'             
     e(  4 -  4) =      2.53930  eV     1   --> A''            
     e(  5 -  5) =      9.93052  eV     1   --> A''            
     e(  6 -  6) =     10.52946  eV     1   --> A'             
     e(  7 -  7) =     11.48424  eV     1   --> A'             
     e(  8 -  8) =     11.48920  eV     1   --> A''            
     e(  9 -  9) =     16.39965  eV     1   --> A'             
     e( 10 - 10) =     17.02582  eV     1   --> A''            

 **************************************************************************

 **************************************************************************

                    xk=(   0.00000,   0.95000,   0.55000  )

     Band symmetry, C_s (m)     point group:

     e(  1 -  1) =     -1.65760  eV     1   --> A'             
     e(  2 -  2) =     -1.25801  eV     1   --> A''            
     e(  3 -  3) =      2.19393  eV     1   --> A'             
     e(  4 -  4) =      2.58655  eV     1   --> A''            
     e(  5 -  5) =      9.78530  eV     1   --> A''            
     e(  6 -  6) =     10.52449  eV     1   --> A'             
     e(  7 -  7) =     11.56031  eV     1   --> A'             
     e(  8 -  8) =     11.59097  eV     1   --> A''            
     e(  9 -  9) =     16.31646  eV     1   --> A'             
     e( 10 - 10) =     17.03771  eV     1   --> A''            

 **************************************************************************

 **************************************************************************

                    xk=(   0.00000,   0.94167,   0.55833  )

     Band symmetry, C_s (m)     point group:

     e(  1 -  1) =     -1.68773  eV     1   --> A'             
     e(  2 -  2) =     -1.23307  eV     1   --> A''            
     e(  3 -  3) =      2.17065  eV     1   --> A'             
     e(  4 -  4) =      2.63672  eV     1   --> A''            
     e(  5 -  5) =      9.63896  eV     1   --> A''            
     e(  6 -  6) =     10.51698  eV     1   --> A'             
     e(  7 -  7) =     11.64070  eV     1   --> A'             
     e(  8 -  8) =     11.69734  eV     1   --> A''            
     e(  9 -  9) =     16.23151  eV     1   --> A'             
     e( 10 - 10) =     17.03355  eV     1   --> A''            

 **************************************************************************

 **************************************************************************

                    xk=(   0.00000,   0.93333,   0.56667  )

     Band symmetry, C_s (m)     point group:

     e(  1 -  1) =     -1.71660  eV     1   --> A'             
     e(  2 -  2) =     -1.21004  eV     1   --> A''            
     e(  3 -  3) =      2.14827  eV     1   --> A'             
     e(  4 -  4) =      2.68963  eV     1   --> A''            
     e(  5 -  5) =      9.49280  eV     1   --> A''            
     e(  6 -  6) =     10.50765  eV     1   --> A'             
     e(  7 -  7) =     11.72462  eV     1   --> A'             
     e(  8 -  8) =     11.80712  eV     1   --> A''            
     e(  9 -  9) =     16.14495  eV     1   --> A'             
     e( 10 - 10) =     17.01278  eV     1   --> A''            

 **************************************************************************

 **************************************************************************

                    xk=(   0.00000,   0.92500,   0.57500  )

     Band symmetry, C_s (m)     point group:

     e(  1 -  1) =     -1.74420  eV     1   --> A'             
     e(  2 -  2) =     -1.18884  eV     1   --> A''            
     e(  3 -  3) =      2.12682  eV     1   --> A'             
     e(  4 -  4) =      2.74507  eV     1   --> A''            
     e(  5 -  5) =      9.34770  eV     1   --> A''            
     e(  6 -  6) =     10.49710  eV     1   --> A'             
     e(  7 -  7) =     11.81145  eV     1   --> A'             
     e(  8 -  8) =     11.91958  eV     1   --> A''            
     e(  9 -  9) =     16.05689  eV     1   --> A'             
     e( 10 - 10) =     16.97565  eV     1   --> A''            

 **************************************************************************

 **************************************************************************

                    xk=(   0.00000,   0.91667,   0.58333  )

     Band symmetry, C_s (m)     point group:

     e(  1 -  1) =     -1.77052  eV     1   --> A'             
     e(  2 -  2) =     -1.16940  eV     1   --> A''            
     e(  3 -  3) =      2.10629  eV     1   --> A'             
     e(  4 -  4) =      2.80278  eV     1   --> A''            
     e(  5 -  5) =      9.20429  eV     1   --> A''            
     e(  6 -  6) =     10.48577  eV     1   --> A'             
     e(  7 -  7) =     11.90072  eV     1   --> A'             
     e(  8 -  8) =     12.03426  eV     1   --> A''            
     e(  9 -  9) =     15.96745  eV     1   --> A'             
     e( 10 - 10) =     16.92318  eV     1   --> A''            

 **************************************************************************

 **************************************************************************

                    xk=(   0.00000,   0.90833,   0.59167  )

     Band symmetry, C_s (m)     point group:

     e(  1 -  1) =     -1.79558  eV     1   --> A'             
     e(  2 -  2) =     -1.15163  eV     1   --> A''            
     e(  3 -  3) =      2.08670  eV     1   --> A'             
     e(  4 -  4) =      2.86251  eV     1   --> A''            
     e(  5 -  5) =      9.06306  eV     1   --> A''            
     e(  6 -  6) =     10.47400  eV     1   --> A'             
     e(  7 -  7) =     11.99202  eV     1   --> A'             
     e(  8 -  8) =     12.15081  eV     1   --> A''            
     e(  9 -  9) =     15.87673  eV     1   --> A'             
     e( 10 - 10) =     16.85691  eV     1   --> A''            

 **************************************************************************

 **************************************************************************

                    xk=(   0.00000,   0.90000,   0.60000  )

     Band symmetry, C_s (m)     point group:

     e(  1 -  1) =     -1.81936  eV     1   --> A'             
     e(  2 -  2) =     -1.13544  eV     1   --> A''            
     e(  3 -  3) =      2.06807  eV     1   --> A'             
     e(  4 -  4) =      2.92395  eV     1   --> A''            
     e(  5 -  5) =      8.92444  eV     1   --> A''            
     e(  6 -  6) =     10.46205  eV     1   --> A'             
     e(  7 -  7) =     12.08505  eV     1   --> A'             
     e(  8 -  8) =     12.26901  eV     1   --> A''            
     e(  9 -  9) =     15.78482  eV     1   --> A'             
     e( 10 - 10) =     16.77866  eV     1   --> A''            

 **************************************************************************

 **************************************************************************

                    xk=(   0.00000,   0.89167,   0.60833  )

     Band symmetry, C_s (m)     point group:

     e(  1 -  1) =     -1.84186  eV     1   --> A'             
     e(  2 -  2) =     -1.12075  eV     1   --> A''            
     e(  3 -  3) =      2.05039  eV     1   --> A'             
     e(  4 -  4) =      2.98679  eV     1   --> A''            
     e(  5 -  5) =      8.78881  eV     1   --> A''            
     e(  6 -  6) =     10.45014  eV     1   --> A'             
     e(  7 -  7) =     12.17956  eV     1   --> A'             
     e(  8 -  8) =     12.38869  eV     1   --> A''            
     e(  9 -  9) =     15.69181  eV     1   --> A'             
     e( 10 - 10) =     16.69022  eV     1   --> A''            

 **************************************************************************

 **************************************************************************

                    xk=(   0.00000,   0.88333,   0.61667  )

     Band symmetry, C_s (m)     point group:

     e(  1 -  1) =     -1.86309  eV     1   --> A'             
     e(  2 -  2) =     -1.10747  eV     1   --> A''            
     e(  3 -  3) =      2.03368  eV     1   --> A'             
     e(  4 -  4) =      3.05066  eV     1   --> A''            
     e(  5 -  5) =      8.65657  eV     1   --> A''            
     e(  6 -  6) =     10.43842  eV     1   --> A'             
     e(  7 -  7) =     12.27532  eV     1   --> A'             
     e(  8 -  8) =     12.50970  eV     1   --> A''            
     e(  9 -  9) =     15.59780  eV     1   --> A'             
     e( 10 - 10) =     16.59326  eV     1   --> A''            

 **************************************************************************

 **************************************************************************

                    xk=(   0.00000,   0.87500,   0.62500  )

     Band symmetry, C_s (m)     point group:

     e(  1 -  1) =     -1.88303  eV     1   --> A'             
     e(  2 -  2) =     -1.09550  eV     1   --> A''            
     e(  3 -  3) =      2.01795  eV     1   --> A'             
     e(  4 -  4) =      3.11517  eV     1   --> A''            
     e(  5 -  5) =      8.52810  eV     1   --> A''            
     e(  6 -  6) =     10.42703  eV     1   --> A'             
     e(  7 -  7) =     12.37213  eV     1   --> A'             
     e(  8 -  8) =     12.63193  eV     1   --> A''            
     e(  9 -  9) =     15.50288  eV     1   --> A'             
     e( 10 - 10) =     16.48927  eV     1   --> A''            

 **************************************************************************

 **************************************************************************

                    xk=(   0.00000,   0.86667,   0.63333  )

     Band symmetry, C_s (m)     point group:

     e(  1 -  1) =     -1.90170  eV     1   --> A'             
     e(  2 -  2) =     -1.08476  eV     1   --> A''            
     e(  3 -  3) =      2.00319  eV     1   --> A'             
     e(  4 -  4) =      3.17991  eV     1   --> A''            
     e(  5 -  5) =      8.40380  eV     1   --> A''            
     e(  6 -  6) =     10.41607  eV     1   --> A'             
     e(  7 -  7) =     12.46983  eV     1   --> A'             
     e(  8 -  8) =     12.75530  eV     1   --> A''            
     e(  9 -  9) =     15.40716  eV     1   --> A'             
     e( 10 - 10) =     16.37948  eV     1   --> A''            

 **************************************************************************

 **************************************************************************

                    xk=(   0.00000,   0.85833,   0.64167  )

     Band symmetry, C_s (m)     point group:

     e(  1 -  1) =     -1.91908  eV     1   --> A'             
     e(  2 -  2) =     -1.07516  eV     1   --> A''            
     e(  3 -  3) =      1.98943  eV     1   --> A'             
     e(  4 -  4) =      3.24440  eV     1   --> A''            
     e(  5 -  5) =      8.28412  eV     1   --> A''            
     e(  6 -  6) =     10.40562  eV     1   --> A'             
     e(  7 -  7) =     12.56824  eV     1   --> A'             
     e(  8 -  8) =     12.87971  eV     1   --> A''            
     e(  9 -  9) =     15.31074  eV     1   --> A'             
     e( 10 - 10) =     16.26497  eV     1   --> A''            

 **************************************************************************

 **************************************************************************

                    xk=(   0.00000,   0.85000,   0.65000  )

     Band symmetry, C_s (m)     point group:

     e(  1 -  1) =     -1.93518  eV     1   --> A'             
     e(  2 -  2) =     -1.06662  eV     1   --> A''            
     e(  3 -  3) =      1.97666  eV     1   --> A'             
     e(  4 -  4) =      3.30813  eV     1   --> A''            
     e(  5 -  5) =      8.16951  eV     1   --> A''            
     e(  6 -  6) =     10.39575  eV     1   --> A'             
     e(  7 -  7) =     12.66719  eV     1   --> A'             
     e(  8 -  8) =     13.00508  eV     1   --> A''            
     e(  9 -  9) =     15.21374  eV     1   --> A'             
     e( 10 - 10) =     16.14658  eV     1   --> A''            

 **************************************************************************

 **************************************************************************

                    xk=(   0.00000,   0.84167,   0.65833  )

     Band symmetry, C_s (m)     point group:

     e(  1 -  1) =     -1.95000  eV     1   --> A'             
     e(  2 -  2) =     -1.05907  eV     1   --> A''            
     e(  3 -  3) =      1.96490  eV     1   --> A'             
     e(  4 -  4) =      3.37055  eV     1   --> A''            
     e(  5 -  5) =      8.06048  eV     1   --> A''            
     e(  6 -  6) =     10.38652  eV     1   --> A'             
     e(  7 -  7) =     12.76651  eV     1   --> A'             
     e(  8 -  8) =     13.13132  eV     1   --> A''            
     e(  9 -  9) =     15.11631  eV     1   --> A'             
     e( 10 - 10) =     16.02506  eV     1   --> A''            

 **************************************************************************

 **************************************************************************

                    xk=(   0.00000,   0.83333,   0.66667  )

     Band symmetry, C_s (m)     point group:

     e(  1 -  1) =     -1.96353  eV     1   --> A'             
     e(  2 -  2) =     -1.05242  eV     1   --> A''            
     e(  3 -  3) =      1.95414  eV     1   --> A'             
     e(  4 -  4) =      3.43105  eV     1   --> A''            
     e(  5 -  5) =      7.95761  eV     1   --> A''            
     e(  6 -  6) =     10.37797  eV     1   --> A'             
     e(  7 -  7) =     12.86599  eV     1   --> A'             
     e(  8 -  8) =     13.25837  eV     1   --> A''            
     e(  9 -  9) =     15.01861  eV     1   --> A'             
     e( 10 - 10) =     15.90102  eV     1   --> A''            

 **************************************************************************

 **************************************************************************

                    xk=(   0.00000,   0.82500,   0.67500  )

     Band symmetry, C_s (m)     point group:

     e(  1 -  1) =     -1.97577  eV     1   --> A'             
     e(  2 -  2) =     -1.04661  eV     1   --> A''            
     e(  3 -  3) =      1.94439  eV     1   --> A'             
     e(  4 -  4) =      3.48900  eV     1   --> A''            
     e(  5 -  5) =      7.86149  eV     1   --> A''            
     e(  6 -  6) =     10.37015  eV     1   --> A'             
     e(  7 -  7) =     12.96541  eV     1   --> A'             
     e(  8 -  8) =     13.38611  eV     1   --> A''            
     e(  9 -  9) =     14.92086  eV     1   --> A'             
     e( 10 - 10) =     15.77499  eV     1   --> A''            

 **************************************************************************

 **************************************************************************

                    xk=(   0.00000,   0.81667,   0.68333  )

     Band symmetry, C_s (m)     point group:

     e(  1 -  1) =     -1.98673  eV     1   --> A'             
     e(  2 -  2) =     -1.04159  eV     1   --> A''            
     e(  3 -  3) =      1.93566  eV     1   --> A'             
     e(  4 -  4) =      3.54370  eV     1   --> A''            
     e(  5 -  5) =      7.77275  eV     1   --> A''            
     e(  6 -  6) =     10.36307  eV     1   --> A'             
     e(  7 -  7) =     13.06445  eV     1   --> A'             
     e(  8 -  8) =     13.51444  eV     1   --> A''            
     e(  9 -  9) =     14.82334  eV     1   --> A'             
     e( 10 - 10) =     15.64743  eV     1   --> A''            

 **************************************************************************

 **************************************************************************

                    xk=(   0.00000,   0.80833,   0.69167  )

     Band symmetry, C_s (m)     point group:

     e(  1 -  1) =     -1.99640  eV     1   --> A'             
     e(  2 -  2) =     -1.03728  eV     1   --> A''            
     e(  3 -  3) =      1.92795  eV     1   --> A'             
     e(  4 -  4) =      3.59443  eV     1   --> A''            
     e(  5 -  5) =      7.69210  eV     1   --> A''            
     e(  6 -  6) =     10.35678  eV     1   --> A'             
     e(  7 -  7) =     13.16272  eV     1   --> A'             
     e(  8 -  8) =     13.64322  eV     1   --> A''            
     e(  9 -  9) =     14.72645  eV     1   --> A'             
     e( 10 - 10) =     15.51876  eV     1   --> A''            

 **************************************************************************

 **************************************************************************

                    xk=(   0.00000,   0.80000,   0.70000  )

     Band symmetry, C_s (m)     point group:

     e(  1 -  1) =     -2.00479  eV     1   --> A'             
     e(  2 -  2) =     -1.03365  eV     1   --> A''            
     e(  3 -  3) =      1.92126  eV     1   --> A'             
     e(  4 -  4) =      3.64045  eV     1   --> A''            
     e(  5 -  5) =      7.62023  eV     1   --> A''            
     e(  6 -  6) =     10.35128  eV     1   --> A'             
     e(  7 -  7) =     13.25960  eV     1   --> A'             
     e(  8 -  8) =     13.77223  eV     1   --> A''            
     e(  9 -  9) =     14.63077  eV     1   --> A'             
     e( 10 - 10) =     15.38944  eV     1   --> A''            

 **************************************************************************

 **************************************************************************

                    xk=(   0.00000,   0.79167,   0.70833  )

     Band symmetry, C_s (m)     point group:

     e(  1 -  1) =     -2.01188  eV     1   --> A'             
     e(  2 -  2) =     -1.03066  eV     1   --> A''            
     e(  3 -  3) =      1.91559  eV     1   --> A'             
     e(  4 -  4) =      3.68100  eV     1   --> A''            
     e(  5 -  5) =      7.55786  eV     1   --> A''            
     e(  6 -  6) =     10.34661  eV     1   --> A'             
     e(  7 -  7) =     13.35417  eV     1   --> A'             
     e(  8 -  8) =     13.90117  eV     1   --> A''            
     e(  9 -  9) =     14.53723  eV     1   --> A'             
     e( 10 - 10) =     15.25995  eV     1   --> A''            

 **************************************************************************

 **************************************************************************

                    xk=(   0.00000,   0.78333,   0.71667  )

     Band symmetry, C_s (m)     point group:

     e(  1 -  1) =     -2.01768  eV     1   --> A'             
     e(  2 -  2) =     -1.02826  eV     1   --> A''            
     e(  3 -  3) =      1.91095  eV     1   --> A'             
     e(  4 -  4) =      3.71537  eV     1   --> A''            
     e(  5 -  5) =      7.50567  eV     1   --> A''            
     e(  6 -  6) =     10.34277  eV     1   --> A'             
     e(  7 -  7) =     13.44490  eV     1   --> A'             
     e(  8 -  8) =     14.02949  eV     1   --> A''            
     e(  9 -  9) =     14.44735  eV     1   --> A'             
     e( 10 - 10) =     15.13100  eV     1   --> A''            

 **************************************************************************

 **************************************************************************

                    xk=(   0.00000,   0.77500,   0.72500  )

     Band symmetry, C_s (m)     point group:

     e(  1 -  1) =     -2.02220  eV     1   --> A'             
     e(  2 -  2) =     -1.02642  eV     1   --> A''            
     e(  3 -  3) =      1.90734  eV     1   --> A'             
     e(  4 -  4) =      3.74289  eV     1   --> A''            
     e(  5 -  5) =      7.46432  eV     1   --> A''            
     e(  6 -  6) =     10.33977  eV     1   --> A'             
     e(  7 -  7) =     13.52905  eV     1   --> A'             
     e(  8 -  8) =     14.15603  eV     1   --> A''            
     e(  9 -  9) =     14.36388  eV     1   --> A'             
     e( 10 - 10) =     15.00385  eV     1   --> A''            

 **************************************************************************

 **************************************************************************

                    xk=(   0.00000,   0.76667,   0.73333  )

     Band symmetry, C_s (m)     point group:

     e(  1 -  1) =     -2.02543  eV     1   --> A'             
     e(  2 -  2) =     -1.02512  eV     1   --> A''            
     e(  3 -  3) =      1.90476  eV     1   --> A'             
     e(  4 -  4) =      3.76300  eV     1   --> A''            
     e(  5 -  5) =      7.43435  eV     1   --> A''            
     e(  6 -  6) =     10.33762  eV     1   --> A'             
     e(  7 -  7) =     13.60158  eV     1   --> A'             
     e(  8 -  8) =     14.27788  eV     1   --> A''            
     e(  9 -  9) =     14.29182  eV     1   --> A'             
     e( 10 - 10) =     14.88151  eV     1   --> A''            

 **************************************************************************

 **************************************************************************

                    xk=(   0.00000,   0.75833,   0.74167  )

     Band symmetry, C_s (m)     point group:

     e(  1 -  1) =     -2.02736  eV     1   --> A'             
     e(  2 -  2) =     -1.02435  eV     1   --> A''            
     e(  3 -  3) =      1.90321  eV     1   --> A'             
     e(  4 -  4) =      3.77524  eV     1   --> A''            
     e(  5 -  5) =      7.41619  eV     1   --> A''            
     e(  6 -  6) =     10.33632  eV     1   --> A'             
     e(  7 -  7) =     13.65361  eV     1   --> A'             
     e(  8 -  8) =     14.24007  eV     1   --> A'             
     e(  9 -  9) =     14.38509  eV     1   --> A''            
     e( 10 - 10) =     14.77398  eV     1   --> A''            

 **************************************************************************

 **************************************************************************

                    xk=(   0.00000,   0.75000,   0.75000  )

     point group C_2v (mm2) 
     there are  4 classes
     the character table:

       E     C2    s_v   s_v' 
A_1    1.00  1.00  1.00  1.00
A_2    1.00  1.00 -1.00 -1.00
B_1    1.00 -1.00  1.00 -1.00
B_2    1.00 -1.00 -1.00  1.00

     the symmetry operations in each class and the name of the first element:

     E        1
                                                                 
     C2       2
                                                                 
     s_v      4
                                                                 
     s_v'     3
                                                                 

     Band symmetry, C_2v (mm2)  point group:

     e(  1 -  1) =     -2.02801  eV     1   --> A_1  D_1  S_1  
     e(  2 -  2) =     -1.02410  eV     1   --> B_1  D_3  S_3  
     e(  3 -  3) =      1.90269  eV     1   --> A_1  D_1  S_1  
     e(  4 -  4) =      3.77936  eV     1   --> A_2  D_2  S_2  
     e(  5 -  5) =      7.41010  eV     1   --> B_1  D_3  S_3  
     e(  6 -  6) =     10.33589  eV     1   --> A_1  D_1  S_1  
     e(  7 -  7) =     13.67315  eV     1   --> B_2  D_4  S_4  
     e(  8 -  8) =     14.22062  eV     1   --> A_1  D_1  S_1  
     e(  9 -  9) =     14.43795  eV     1   --> B_1  D_3  S_3  
     e( 10 - 10) =     14.72101  eV     1   --> A_2  D_2  S_2  

 **************************************************************************

 **************************************************************************

                    xk=(   0.00000,   0.72500,   0.72500  )

     Band symmetry, C_2v (mm2)  point group:

     e(  1 -  1) =     -2.14880  eV     1   --> A_1  D_1  S_1  
     e(  2 -  2) =     -0.90064  eV     1   --> B_1  D_3  S_3  
     e(  3 -  3) =      1.83158  eV     1   --> A_1  D_1  S_1  
     e(  4 -  4) =      3.86572  eV     1   --> A_2  D_2  S_2  
     e(  5 -  5) =      7.51018  eV     1   --> B_1  D_3  S_3  
     e(  6 -  6) =     10.84330  eV     1   --> A_1  D_1  S_1  
     e(  7 -  7) =     13.36704  eV     1   --> B_2  D_4  S_4  
     e(  8 -  8) =     13.90931  eV     1   --> A_1  D_1  S_1  
     e(  9 -  9) =     14.19202  eV     1   --> B_1  D_3  S_3  
     e( 10 - 10) =     14.45594  eV     1   --> A_2  D_2  S_2  

 **************************************************************************

 **************************************************************************

                    xk=(   0.00000,   0.70000,   0.70000  )

     Band symmetry, C_2v (mm2)  point group:

     e(  1 -  1) =     -2.28688  eV     1   --> A_1  D_1  S_1  
     e(  2 -  2) =     -0.76562  eV     1   --> B_1  D_3  S_3  
     e(  3 -  3) =      1.79334  eV     1   --> A_1  D_1  S_1  
     e(  4 -  4) =      3.95885  eV     1   --> A_2  D_2  S_2  
     e(  5 -  5) =      7.61811  eV     1   --> B_1  D_3  S_3  
     e(  6 -  6) =     11.35495  eV     1   --> A_1  D_1  S_1  
     e(  7 -  7) =     13.06798  eV     1   --> B_2  D_4  S_4  
     e(  8 -  8) =     13.61591  eV     1   --> A_1  D_1  S_1  
     e(  9 -  9) =     13.95033  eV     1   --> B_1  D_3  S_3  
     e( 10 - 10) =     14.20109  eV     1   --> A_2  D_2  S_2  

 **************************************************************************

 **************************************************************************

                    xk=(   0.00000,   0.67500,   0.67500  )

     Band symmetry, C_2v (mm2)  point group:

     e(  1 -  1) =     -2.44029  eV     1   --> A_1  D_1  S_1  
     e(  2 -  2) =     -0.61908  eV     1   --> B_1  D_3  S_3  
     e(  3 -  3) =      1.78707  eV     1   --> A_1  D_1  S_1  
     e(  4 -  4) =      4.05831  eV     1   --> A_2  D_2  S_2  
     e(  5 -  5) =      7.73329  eV     1   --> B_1  D_3  S_3  
     e(  6 -  6) =     11.85414  eV     1   --> A_1  D_1  S_1  
     e(  7 -  7) =     12.77674  eV     1   --> B_2  D_4  S_4  
     e(  8 -  8) =     13.35544  eV     1   --> A_1  D_1  S_1  
     e(  9 -  9) =     13.71452  eV     1   --> B_1  D_3  S_3  
     e( 10 - 10) =     13.95760  eV     1   --> A_2  D_2  S_2  

 **************************************************************************

 **************************************************************************

                    xk=(   0.00000,   0.65000,   0.65000  )

     Band symmetry, C_2v (mm2)  point group:

     e(  1 -  1) =     -2.60640  eV     1   --> A_1  D_1  S_1  
     e(  2 -  2) =     -0.46110  eV     1   --> B_1  D_3  S_3  
     e(  3 -  3) =      1.81092  eV     1   --> A_1  D_1  S_1  
     e(  4 -  4) =      4.16356  eV     1   --> A_2  D_2  S_2  
     e(  5 -  5) =      7.85499  eV     1   --> B_1  D_3  S_3  
     e(  6 -  6) =     12.27594  eV     1   --> A_1  D_1  S_1  
     e(  7 -  7) =     12.49389  eV     1   --> B_2  D_4  S_4  
     e(  8 -  8) =     13.19098  eV     1   --> A_1  D_1  S_1  
     e(  9 -  9) =     13.48608  eV     1   --> B_1  D_3  S_3  
     e( 10 - 10) =     13.72653  eV     1   --> A_2  D_2  S_2  

 **************************************************************************

 **************************************************************************

                    xk=(   0.00000,   0.62500,   0.62500  )

     Band symmetry, C_2v (mm2)  point group:

     e(  1 -  1) =     -2.78232  eV     1   --> A_1  D_1  S_1  
     e(  2 -  2) =     -0.29172  eV     1   --> B_1  D_3  S_3  
     e(  3 -  3) =      1.86253  eV     1   --> A_1  D_1  S_1  
     e(  4 -  4) =      4.27400  eV     1   --> A_2  D_2  S_2  
     e(  5 -  5) =      7.98231  eV     1   --> B_1  D_3  S_3  
     e(  6 -  6) =     12.21991  eV     1   --> B_2  D_4  S_4  
     e(  7 -  7) =     12.40765  eV     1   --> A_1  D_1  S_1  
     e(  8 -  8) =     13.26642  eV     1   --> B_1  D_3  S_3  
     e(  9 -  9) =     13.33299  eV     1   --> A_1  D_1  S_1  
     e( 10 - 10) =     13.50889  eV     1   --> A_2  D_2  S_2  

 **************************************************************************

 **************************************************************************

                    xk=(   0.00000,   0.60000,   0.60000  )

     Band symmetry, C_2v (mm2)  point group:

     e(  1 -  1) =     -2.96510  eV     1   --> A_1  D_1  S_1  
     e(  2 -  2) =     -0.11105  eV     1   --> B_1  D_3  S_3  
     e(  3 -  3) =      1.93936  eV     1   --> A_1  D_1  S_1  
     e(  4 -  4) =      4.38895  eV     1   --> A_2  D_2  S_2  
     e(  5 -  5) =      8.11416  eV     1   --> B_1  D_3  S_3  
     e(  6 -  6) =     11.95517  eV     1   --> B_2  D_4  S_4  
     e(  7 -  7) =     12.25803  eV     1   --> A_1  D_1  S_1  
     e(  8 -  8) =     13.05695  eV     1   --> B_1  D_3  S_3  
     e(  9 -  9) =     13.30570  eV     1   --> A_2  D_2  S_2  
     e( 10 - 10) =     13.76972  eV     1   --> A_1  D_1  S_1  

 **************************************************************************

 **************************************************************************

                    xk=(   0.00000,   0.57500,   0.57500  )

     Band symmetry, C_2v (mm2)  point group:

     e(  1 -  1) =     -3.15201  eV     1   --> A_1  D_1  S_1  
     e(  2 -  2) =      0.08084  eV     1   --> B_1  D_3  S_3  
     e(  3 -  3) =      2.03891  eV     1   --> A_1  D_1  S_1  
     e(  4 -  4) =      4.50764  eV     1   --> A_2  D_2  S_2  
     e(  5 -  5) =      8.24919  eV     1   --> B_1  D_3  S_3  
     e(  6 -  6) =     11.69998  eV     1   --> B_2  D_4  S_4  
     e(  7 -  7) =     12.03599  eV     1   --> A_1  D_1  S_1  
     e(  8 -  8) =     12.85914  eV     1   --> B_1  D_3  S_3  
     e(  9 -  9) =     13.11798  eV     1   --> A_2  D_2  S_2  
     e( 10 - 10) =     14.28801  eV     1   --> A_1  D_1  S_1  

 **************************************************************************

 **************************************************************************

                    xk=(   0.00000,   0.55000,   0.55000  )

     Band symmetry, C_2v (mm2)  point group:

     e(  1 -  1) =     -3.34059  eV     1   --> A_1  D_1  S_1  
     e(  2 -  2) =      0.28385  eV     1   --> B_1  D_3  S_3  
     e(  3 -  3) =      2.15886  eV     1   --> A_1  D_1  S_1  
     e(  4 -  4) =      4.62921  eV     1   --> A_2  D_2  S_2  
     e(  5 -  5) =      8.38577  eV     1   --> B_1  D_3  S_3  
     e(  6 -  6) =     11.45460  eV     1   --> B_2  D_4  S_4  
     e(  7 -  7) =     11.80140  eV     1   --> A_1  D_1  S_1  
     e(  8 -  8) =     12.67454  eV     1   --> B_1  D_3  S_3  
     e(  9 -  9) =     12.94676  eV     1   --> A_2  D_2  S_2  
     e( 10 - 10) =     14.82162  eV     1   --> A_1  D_1  S_1  

 **************************************************************************

 **************************************************************************

                    xk=(   0.00000,   0.52500,   0.52500  )

     Band symmetry, C_2v (mm2)  point group:

     e(  1 -  1) =     -3.52874  eV     1   --> A_1  D_1  S_1  
     e(  2 -  2) =      0.49786  eV     1   --> B_1  D_3  S_3  
     e(  3 -  3) =      2.29713  eV     1   --> A_1  D_1  S_1  
     e(  4 -  4) =      4.75269  eV     1   --> A_2  D_2  S_2  
     e(  5 -  5) =      8.52189  eV     1   --> B_1  D_3  S_3  
     e(  6 -  6) =     11.21923  eV     1   --> B_2  D_4  S_4  
     e(  7 -  7) =     11.56832  eV     1   --> A_1  D_1  S_1  
     e(  8 -  8) =     12.50488  eV     1   --> B_1  D_3  S_3  
     e(  9 -  9) =     12.79313  eV     1   --> A_2  D_2  S_2  
     e( 10 - 10) =     15.34641  eV     1   --> A_1  D_1  S_1  

 **************************************************************************

 **************************************************************************

                    xk=(   0.00000,   0.50000,   0.50000  )

     Band symmetry, C_2v (mm2)  point group:

     e(  1 -  1) =     -3.71464  eV     1   --> A_1  D_1  S_1  
     e(  2 -  2) =      0.72276  eV     1   --> B_1  D_3  S_3  
     e(  3 -  3) =      2.45185  eV     1   --> A_1  D_1  S_1  
     e(  4 -  4) =      4.87704  eV     1   --> A_2  D_2  S_2  
     e(  5 -  5) =      8.65513  eV     1   --> B_1  D_3  S_3  
     e(  6 -  6) =     10.99406  eV     1   --> B_2  D_4  S_4  
     e(  7 -  7) =     11.34132  eV     1   --> A_1  D_1  S_1  
     e(  8 -  8) =     12.35204  eV     1   --> B_1  D_3  S_3  
     e(  9 -  9) =     12.65818  eV     1   --> A_2  D_2  S_2  
     e( 10 - 10) =     15.84156  eV     1   --> A_1  D_1  S_1  

 **************************************************************************

 **************************************************************************

                    xk=(   0.00000,   0.47500,   0.47500  )

     Band symmetry, C_2v (mm2)  point group:

     e(  1 -  1) =     -3.89681  eV     1   --> A_1  D_1  S_1  
     e(  2 -  2) =      0.95838  eV     1   --> B_1  D_3  S_3  
     e(  3 -  3) =      2.62134  eV     1   --> A_1  D_1  S_1  
     e(  4 -  4) =      5.00113  eV     1   --> A_2  D_2  S_2  
     e(  5 -  5) =      8.78264  eV     1   --> B_1  D_3  S_3  
     e(  6 -  6) =     10.77924  eV     1   --> B_2  D_4  S_4  
     e(  7 -  7) =     11.12225  eV     1   --> A_1  D_1  S_1  
     e(  8 -  8) =     12.21805  eV     1   --> B_1  D_3  S_3  
     e(  9 -  9) =     12.54304  eV     1   --> A_2  D_2  S_2  
     e( 10 - 10) =     16.27964  eV     1   --> A_1  D_1  S_1  

 **************************************************************************

 **************************************************************************

                    xk=(   0.00000,   0.45000,   0.45000  )

     Band symmetry, C_2v (mm2)  point group:

     e(  1 -  1) =     -4.07400  eV     1   --> A_1  D_1  S_1  
     e(  2 -  2) =      1.20457  eV     1   --> B_1  D_3  S_3  
     e(  3 -  3) =      2.80411  eV     1   --> A_1  D_1  S_1  
     e(  4 -  4) =      5.12375  eV     1   --> A_2  D_2  S_2  
     e(  5 -  5) =      8.90120  eV     1   --> B_1  D_3  S_3  
     e(  6 -  6) =     10.57489  eV     1   --> B_2  D_4  S_4  
     e(  7 -  7) =     10.91199  eV     1   --> A_1  D_1  S_1  
     e(  8 -  8) =     12.10498  eV     1   --> B_1  D_3  S_3  
     e(  9 -  9) =     12.44886  eV     1   --> A_2  D_2  S_2  
     e( 10 - 10) =     16.62480  eV     1   --> A_1  D_1  S_1  

 **************************************************************************

 **************************************************************************

                    xk=(   0.00000,   0.42500,   0.42500  )

     Band symmetry, C_2v (mm2)  point group:

     e(  1 -  1) =     -4.24516  eV     1   --> A_1  D_1  S_1  
     e(  2 -  2) =      1.46113  eV     1   --> B_1  D_3  S_3  
     e(  3 -  3) =      2.99874  eV     1   --> A_1  D_1  S_1  
     e(  4 -  4) =      5.24366  eV     1   --> A_2  D_2  S_2  
     e(  5 -  5) =      9.00732  eV     1   --> B_1  D_3  S_3  
     e(  6 -  6) =     10.38114  eV     1   --> B_2  D_4  S_4  
     e(  7 -  7) =     10.71098  eV     1   --> A_1  D_1  S_1  
     e(  8 -  8) =     12.01461  eV     1   --> B_1  D_3  S_3  
     e(  9 -  9) =     12.37675  eV     1   --> A_2  D_2  S_2  
     e( 10 - 10) =     16.84401  eV     1   --> A_1  D_1  S_1  

 **************************************************************************

 **************************************************************************

                    xk=(   0.00000,   0.40000,   0.40000  )

     Band symmetry, C_2v (mm2)  point group:

     e(  1 -  1) =     -4.40944  eV     1   --> A_1  D_1  S_1  
     e(  2 -  2) =      1.72782  eV     1   --> B_1  D_3  S_3  
     e(  3 -  3) =      3.20388  eV     1   --> A_1  D_1  S_1  
     e(  4 -  4) =      5.35960  eV     1   --> A_2  D_2  S_2  
     e(  5 -  5) =      9.09765  eV     1   --> B_1  D_3  S_3  
     e(  6 -  6) =     10.19808  eV     1   --> B_2  D_4  S_4  
     e(  7 -  7) =     10.51939  eV     1   --> A_1  D_1  S_1  
     e(  8 -  8) =     11.94790  eV     1   --> B_1  D_3  S_3  
     e(  9 -  9) =     12.32775  eV     1   --> A_2  D_2  S_2  
     e( 10 - 10) =     16.92952  eV     1   --> A_1  D_1  S_1  

 **************************************************************************

 **************************************************************************

                    xk=(   0.00000,   0.37500,   0.37500  )

     Band symmetry, C_2v (mm2)  point group:

     e(  1 -  1) =     -4.56611  eV     1   --> A_1  D_1  S_1  
     e(  2 -  2) =      2.00438  eV     1   --> B_1  D_3  S_3  
     e(  3 -  3) =      3.41822  eV     1   --> A_1  D_1  S_1  
     e(  4 -  4) =      5.47034  eV     1   --> A_2  D_2  S_2  
     e(  5 -  5) =      9.16942  eV     1   --> B_1  D_3  S_3  
     e(  6 -  6) =     10.02579  eV     1   --> B_2  D_4  S_4  
     e(  7 -  7) =     10.33731  eV     1   --> A_1  D_1  S_1  
     e(  8 -  8) =     11.90421  eV     1   --> B_1  D_3  S_3  
     e(  9 -  9) =     12.30280  eV     1   --> A_2  D_2  S_2  
     e( 10 - 10) =     16.45276  eV     1   --> B_1  D_3  S_3  

 **************************************************************************

 **************************************************************************

                    xk=(   0.00000,   0.35000,   0.35000  )

     Band symmetry, C_2v (mm2)  point group:

     e(  1 -  1) =     -4.71460  eV     1   --> A_1  D_1  S_1  
     e(  2 -  2) =      2.29046  eV     1   --> B_1  D_3  S_3  
     e(  3 -  3) =      3.64039  eV     1   --> A_1  D_1  S_1  
     e(  4 -  4) =      5.57477  eV     1   --> A_2  D_2  S_2  
     e(  5 -  5) =      9.22104  eV     1   --> B_1  D_3  S_3  
     e(  6 -  6) =      9.86435  eV     1   --> B_2  D_4  S_4  
     e(  7 -  7) =     10.16470  eV     1   --> A_1  D_1  S_1  
     e(  8 -  8) =     11.88020  eV     1   --> B_1  D_3  S_3  
     e(  9 -  9) =     12.30265  eV     1   --> A_2  D_2  S_2  
     e( 10 - 10) =     15.93014  eV     1   --> B_1  D_3  S_3  

 **************************************************************************

 **************************************************************************

                    xk=(   0.00000,   0.32500,   0.32500  )

[...]
     e(  6 -  6) =     11.19060  eV     1   --> A'             
     e(  7 -  7) =     11.82924  eV     1   --> A''            
     e(  8 -  8) =     12.10101  eV     1   --> A'             
     e(  9 -  9) =     14.81568  eV     1   --> A'             
     e( 10 - 10) =     16.07090  eV     1   --> A''            

 **************************************************************************

 **************************************************************************

                    xk=(   0.00000,   0.82500,   0.52500  )

     Band symmetry, C_s (m)     point group:

     e(  1 -  1) =     -2.23514  eV     1   --> A'             
     e(  2 -  2) =     -0.73295  eV     1   --> A''            
     e(  3 -  3) =      1.95291  eV     1   --> A'             
     e(  4 -  4) =      3.21098  eV     1   --> A''            
     e(  5 -  5) =      9.22536  eV     1   --> A''            
     e(  6 -  6) =     10.95151  eV     1   --> A'             
     e(  7 -  7) =     11.51134  eV     1   --> A''            
     e(  8 -  8) =     12.25662  eV     1   --> A'             
     e(  9 -  9) =     14.91538  eV     1   --> A'             
     e( 10 - 10) =     16.25104  eV     1   --> A''            

 **************************************************************************

 **************************************************************************

                    xk=(   0.00000,   0.83333,   0.50000  )

     Band symmetry, C_s (m)     point group:

     e(  1 -  1) =     -2.24176  eV     1   --> A'             
     e(  2 -  2) =     -0.71679  eV     1   --> A''            
     e(  3 -  3) =      1.99572  eV     1   --> A'             
     e(  4 -  4) =      3.12584  eV     1   --> A''            
     e(  5 -  5) =      9.53222  eV     1   --> A''            
     e(  6 -  6) =     10.68265  eV     1   --> A'             
     e(  7 -  7) =     11.20610  eV     1   --> A''            
     e(  8 -  8) =     12.45053  eV     1   --> A'             
     e(  9 -  9) =     15.01398  eV     1   --> A'             
     e( 10 - 10) =     16.42615  eV     1   --> A''            

 **************************************************************************

 **************************************************************************

                    xk=(   0.00000,   0.84167,   0.47500  )

     Band symmetry, C_s (m)     point group:

     e(  1 -  1) =     -2.24491  eV     1   --> A'             
     e(  2 -  2) =     -0.70651  eV     1   --> A''            
     e(  3 -  3) =      2.04535  eV     1   --> A'             
     e(  4 -  4) =      3.04929  eV     1   --> A''            
     e(  5 -  5) =      9.83220  eV     1   --> A''            
     e(  6 -  6) =     10.40509  eV     1   --> A'             
     e(  7 -  7) =     10.92611  eV     1   --> A''            
     e(  8 -  8) =     12.66211  eV     1   --> A'             
     e(  9 -  9) =     15.11130  eV     1   --> A'             
     e( 10 - 10) =     16.59466  eV     1   --> A''            

 **************************************************************************

 **************************************************************************

                    xk=(   0.00000,   0.85000,   0.45000  )

     Band symmetry, C_s (m)     point group:

     e(  1 -  1) =     -2.24453  eV     1   --> A'             
     e(  2 -  2) =     -0.70289  eV     1   --> A''            
     e(  3 -  3) =      2.10152  eV     1   --> A'             
     e(  4 -  4) =      2.98326  eV     1   --> A''            
     e(  5 -  5) =     10.06775  eV     1   --> A''            
     e(  6 -  6) =     10.12640  eV     1   --> A'             
     e(  7 -  7) =     10.72778  eV     1   --> A''            
     e(  8 -  8) =     12.88408  eV     1   --> A'             
     e(  9 -  9) =     15.20724  eV     1   --> A'             
     e( 10 - 10) =     16.75484  eV     1   --> A''            

 **************************************************************************

 **************************************************************************

                    xk=(   0.00000,   0.85833,   0.42500  )

     Band symmetry, C_s (m)     point group:

     e(  1 -  1) =     -2.24057  eV     1   --> A'             
     e(  2 -  2) =     -0.70655  eV     1   --> A''            
     e(  3 -  3) =      2.16391  eV     1   --> A'             
     e(  4 -  4) =      2.92928  eV     1   --> A''            
     e(  5 -  5) =      9.85003  eV     1   --> A'             
     e(  6 -  6) =     10.05895  eV     1   --> A''            
     e(  7 -  7) =     10.79012  eV     1   --> A''            
     e(  8 -  8) =     13.11327  eV     1   --> A'             
     e(  9 -  9) =     15.30184  eV     1   --> A'             
     e( 10 - 10) =     16.90485  eV     1   --> A''            

 **************************************************************************

 **************************************************************************

                    xk=(   0.00000,   0.86667,   0.40000  )

     Band symmetry, C_s (m)     point group:

     e(  1 -  1) =     -2.23298  eV     1   --> A'             
     e(  2 -  2) =     -0.71798  eV     1   --> A''            
     e(  3 -  3) =      2.23213  eV     1   --> A'             
     e(  4 -  4) =      2.88842  eV     1   --> A''            
     e(  5 -  5) =      9.57795  eV     1   --> A'             
     e(  6 -  6) =      9.84664  eV     1   --> A''            
     e(  7 -  7) =     11.07162  eV     1   --> A''            
     e(  8 -  8) =     13.34796  eV     1   --> A'             
     e(  9 -  9) =     15.39523  eV     1   --> A'             
     e( 10 - 10) =     17.04268  eV     1   --> A''            

 **************************************************************************

 **************************************************************************

                    xk=(  -0.00000,   0.87500,   0.37500  )

     Band symmetry, C_s (m)     point group:

     e(  1 -  1) =     -2.22170  eV     1   --> A'             
     e(  2 -  2) =     -0.73742  eV     1   --> A''            
     e(  3 -  3) =      2.30573  eV     1   --> A'             
     e(  4 -  4) =      2.86128  eV     1   --> A''            
     e(  5 -  5) =      9.31152  eV     1   --> A'             
     e(  6 -  6) =      9.58850  eV     1   --> A''            
     e(  7 -  7) =     11.41408  eV     1   --> A''            
     e(  8 -  8) =     13.58695  eV     1   --> A'             
     e(  9 -  9) =     15.48763  eV     1   --> A'             
     e( 10 - 10) =     17.16607  eV     1   --> A''            

 **************************************************************************

 **************************************************************************

                    xk=(  -0.00000,   0.88333,   0.35000  )

     Band symmetry, C_s (m)     point group:

     e(  1 -  1) =     -2.20671  eV     1   --> A'             
     e(  2 -  2) =     -0.76487  eV     1   --> A''            
     e(  3 -  3) =      2.38421  eV     1   --> A'             
     e(  4 -  4) =      2.84805  eV     1   --> A''            
     e(  5 -  5) =      9.05186  eV     1   --> A'             
     e(  6 -  6) =      9.32376  eV     1   --> A''            
     e(  7 -  7) =     11.77789  eV     1   --> A''            
     e(  8 -  8) =     13.82926  eV     1   --> A'             
     e(  9 -  9) =     15.57939  eV     1   --> A'             
     e( 10 - 10) =     17.27238  eV     1   --> A''            

 **************************************************************************

 **************************************************************************

                    xk=(  -0.00000,   0.89167,   0.32500  )

     Band symmetry, C_s (m)     point group:

     e(  1 -  1) =     -2.18796  eV     1   --> A'             
     e(  2 -  2) =     -0.80009  eV     1   --> A''            
     e(  3 -  3) =      2.46694  eV     1   --> A'             
     e(  4 -  4) =      2.84846  eV     1   --> A''            
     e(  5 -  5) =      8.80000  eV     1   --> A'             
     e(  6 -  6) =      9.06206  eV     1   --> A''            
     e(  7 -  7) =     12.15314  eV     1   --> A''            
     e(  8 -  8) =     14.07389  eV     1   --> A'             
     e(  9 -  9) =     15.67104  eV     1   --> A'             
     e( 10 - 10) =     17.35842  eV     1   --> A''            

 **************************************************************************

 **************************************************************************

                    xk=(   0.00000,   0.90000,   0.30000  )

     Band symmetry, C_s (m)     point group:

     e(  1 -  1) =     -2.16543  eV     1   --> A'             
     e(  2 -  2) =     -0.84255  eV     1   --> A''            
     e(  3 -  3) =      2.55319  eV     1   --> A'             
     e(  4 -  4) =      2.86180  eV     1   --> A''            
     e(  5 -  5) =      8.55699  eV     1   --> A'             
     e(  6 -  6) =      8.80706  eV     1   --> A''            
     e(  7 -  7) =     12.53592  eV     1   --> A''            
     e(  8 -  8) =     14.31969  eV     1   --> A'             
     e(  9 -  9) =     15.76325  eV     1   --> A'             
     e( 10 - 10) =     17.42060  eV     1   --> A''            

 **************************************************************************

 **************************************************************************

                    xk=(   0.00000,   0.90833,   0.27500  )

     Band symmetry, C_s (m)     point group:

     e(  1 -  1) =     -2.13912  eV     1   --> A'             
     e(  2 -  2) =     -0.89158  eV     1   --> A''            
     e(  3 -  3) =      2.64211  eV     1   --> A'             
     e(  4 -  4) =      2.88699  eV     1   --> A''            
     e(  5 -  5) =      8.32394  eV     1   --> A'             
     e(  6 -  6) =      8.56079  eV     1   --> A''            
     e(  7 -  7) =     12.92405  eV     1   --> A''            
     e(  8 -  8) =     14.56524  eV     1   --> A'             
     e(  9 -  9) =     15.85700  eV     1   --> A'             
     e( 10 - 10) =     17.45555  eV     1   --> A''            

 **************************************************************************

 **************************************************************************

                    xk=(   0.00000,   0.91667,   0.25000  )

     Band symmetry, C_s (m)     point group:

     e(  1 -  1) =     -2.10903  eV     1   --> A'             
     e(  2 -  2) =     -0.94632  eV     1   --> A''            
     e(  3 -  3) =      2.73266  eV     1   --> A'             
     e(  4 -  4) =      2.92262  eV     1   --> A''            
     e(  5 -  5) =      8.10209  eV     1   --> A'             
     e(  6 -  6) =      8.32478  eV     1   --> A''            
     e(  7 -  7) =     13.31579  eV     1   --> A''            
     e(  8 -  8) =     14.80860  eV     1   --> A'             
     e(  9 -  9) =     15.95363  eV     1   --> A'             
     e( 10 - 10) =     17.46188  eV     1   --> A''            

 **************************************************************************

 **************************************************************************

                    xk=(   0.00000,   0.92500,   0.22500  )

     Band symmetry, C_s (m)     point group:

     e(  1 -  1) =     -2.07517  eV     1   --> A'             
     e(  2 -  2) =     -1.00585  eV     1   --> A''            
     e(  3 -  3) =      2.82363  eV     1   --> A'             
     e(  4 -  4) =      2.96694  eV     1   --> A''            
     e(  5 -  5) =      7.89286  eV     1   --> A'             
     e(  6 -  6) =      8.10044  eV     1   --> A''            
     e(  7 -  7) =     13.70948  eV     1   --> A''            
     e(  8 -  8) =     15.04709  eV     1   --> A'             
     e(  9 -  9) =     16.05511  eV     1   --> A'             
     e( 10 - 10) =     17.44171  eV     1   --> A''            

 **************************************************************************

 **************************************************************************

                    xk=(   0.00000,   0.93333,   0.20000  )

     Band symmetry, C_s (m)     point group:

     e(  1 -  1) =     -2.03757  eV     1   --> A'             
     e(  2 -  2) =     -1.06921  eV     1   --> A''            
     e(  3 -  3) =      2.91355  eV     1   --> A'             
     e(  4 -  4) =      3.01797  eV     1   --> A''            
     e(  5 -  5) =      7.69789  eV     1   --> A'             
     e(  6 -  6) =      7.88927  eV     1   --> A''            
     e(  7 -  7) =     14.10310  eV     1   --> A''            
     e(  8 -  8) =     15.27689  eV     1   --> A'             
     e(  9 -  9) =     16.16416  eV     1   --> A'             
     e( 10 - 10) =     17.40058  eV     1   --> A''            

 **************************************************************************

 **************************************************************************

                    xk=(   0.00000,   0.94167,   0.17500  )

     Band symmetry, C_s (m)     point group:

     e(  1 -  1) =     -1.99630  eV     1   --> A'             
     e(  2 -  2) =     -1.13547  eV     1   --> A''            
     e(  3 -  3) =      3.00071  eV     1   --> A'             
     e(  4 -  4) =      3.07343  eV     1   --> A''            
     e(  5 -  5) =      7.51906  eV     1   --> A'             
     e(  6 -  6) =      7.69291  eV     1   --> A''            
     e(  7 -  7) =     14.49399  eV     1   --> A''            
     e(  8 -  8) =     15.49288  eV     1   --> A'             
     e(  9 -  9) =     16.28441  eV     1   --> A'             
     e( 10 - 10) =     17.34561  eV     1   --> A''            

 **************************************************************************

 **************************************************************************

                    xk=(   0.00000,   0.95000,   0.15000  )

     Band symmetry, C_s (m)     point group:

     e(  1 -  1) =     -1.95143  eV     1   --> A'             
     e(  2 -  2) =     -1.20373  eV     1   --> A''            
     e(  3 -  3) =      3.08313  eV     1   --> A'             
     e(  4 -  4) =      3.13078  eV     1   --> A''            
     e(  5 -  5) =      7.35851  eV     1   --> A'             
     e(  6 -  6) =      7.51324  eV     1   --> A''            
     e(  7 -  7) =     14.87823  eV     1   --> A''            
     e(  8 -  8) =     15.68896  eV     1   --> A'             
     e(  9 -  9) =     16.41961  eV     1   --> A'             
     e( 10 - 10) =     17.28385  eV     1   --> A''            

 **************************************************************************

 **************************************************************************

                    xk=(   0.00000,   0.95833,   0.12500  )

     Band symmetry, C_s (m)     point group:

     e(  1 -  1) =     -1.90305  eV     1   --> A'             
     e(  2 -  2) =     -1.27315  eV     1   --> A''            
     e(  3 -  3) =      3.15857  eV     1   --> A'             
     e(  4 -  4) =      3.18726  eV     1   --> A''            
     e(  5 -  5) =      7.21867  eV     1   --> A'             
     e(  6 -  6) =      7.35240  eV     1   --> A''            
     e(  7 -  7) =     15.24954  eV     1   --> A''            
     e(  8 -  8) =     15.85994  eV     1   --> A'             
     e(  9 -  9) =     16.57132  eV     1   --> A'             
     e( 10 - 10) =     17.22219  eV     1   --> A''            

 **************************************************************************

 **************************************************************************

                    xk=(   0.00000,   0.96667,   0.10000  )

     Band symmetry, C_s (m)     point group:

     e(  1 -  1) =     -1.85129  eV     1   --> A'             
     e(  2 -  2) =     -1.34298  eV     1   --> A''            
     e(  3 -  3) =      3.22464  eV     1   --> A'             
     e(  4 -  4) =      3.23989  eV     1   --> A''            
     e(  5 -  5) =      7.10210  eV     1   --> A'             
     e(  6 -  6) =      7.21278  eV     1   --> A''            
     e(  7 -  7) =     15.59724  eV     1   --> A''            
     e(  8 -  8) =     16.00381  eV     1   --> A'             
     e(  9 -  9) =     16.73549  eV     1   --> A'             
     e( 10 - 10) =     17.16854  eV     1   --> A''            

 **************************************************************************

 **************************************************************************

                    xk=(  -0.00000,   0.97500,   0.07500  )

     Band symmetry, C_s (m)     point group:

     e(  1 -  1) =     -1.79631  eV     1   --> A'             
     e(  2 -  2) =     -1.41255  eV     1   --> A''            
     e(  3 -  3) =      3.27892  eV     1   --> A'             
     e(  4 -  4) =      3.28557  eV     1   --> A''            
     e(  5 -  5) =      7.01144  eV     1   --> A'             
     e(  6 -  6) =      7.09692  eV     1   --> A''            
     e(  7 -  7) =     15.90267  eV     1   --> A''            
     e(  8 -  8) =     16.12189  eV     1   --> A'             
     e(  9 -  9) =     16.90060  eV     1   --> A'             
     e( 10 - 10) =     17.13382  eV     1   --> A''            

 **************************************************************************

 **************************************************************************

                    xk=(   0.00000,   0.98333,   0.05000  )

     Band symmetry, C_s (m)     point group:

     e(  1 -  1) =     -1.73830  eV     1   --> A'             
     e(  2 -  2) =     -1.48127  eV     1   --> A''            
     e(  3 -  3) =      3.31922  eV     1   --> A'             
     e(  4 -  4) =      3.32124  eV     1   --> A''            
     e(  5 -  5) =      6.94908  eV     1   --> A'             
     e(  6 -  6) =      7.00739  eV     1   --> A''            
     e(  7 -  7) =     16.13654  eV     1   --> A''            
     e(  8 -  8) =     16.21552  eV     1   --> A'             
     e(  9 -  9) =     17.04756  eV     1   --> A'             
     e( 10 - 10) =     17.13160  eV     1   --> A''            

 **************************************************************************

 **************************************************************************

                    xk=(   0.00000,   0.99167,   0.02500  )

     Band symmetry, C_s (m)     point group:

     e(  1 -  1) =     -1.67749  eV     1   --> A'             
     e(  2 -  2) =     -1.54862  eV     1   --> A''            
     e(  3 -  3) =      3.34389  eV     1   --> A'             
     e(  4 -  4) =      3.34415  eV     1   --> A''            
     e(  5 -  5) =      6.91693  eV     1   --> A'             
     e(  6 -  6) =      6.94651  eV     1   --> A''            
     e(  7 -  7) =     16.27082  eV     1   --> A''            
     e(  8 -  8) =     16.28187  eV     1   --> A'             
     e(  9 -  9) =     17.15042  eV     1   --> A'             
     e( 10 - 10) =     17.16219  eV     1   --> A''            

 **************************************************************************

 **************************************************************************

                    xk=(   0.00000,   1.00000,   0.00000  )

     zone border point and non-symmorphic group 
     symmetry decomposition not available

 **************************************************************************

     BANDS        :     22.31s CPU     29.25s WALL


   This run was terminated on:   5:12:15  21Jan2020            

=------------------------------------------------------------------------------=
   JOB DONE.
=------------------------------------------------------------------------------=
