
     Program BANDS v.6.4.1 starts on 21Jan2020 at 19:45:56 

     This program is part of the open-source Quantum ESPRESSO suite
     for quantum simulation of materials; please cite
         "P. Giannozzi et al., J. Phys.:Condens. Matter 21 395502 (2009);
         "P. Giannozzi et al., J. Phys.:Condens. Matter 29 465901 (2017);
          URL http://www.quantum-espresso.org", 
     in publications or presentations arising from this work. More details at
     http://www.quantum-espresso.org/quote

     Parallel version (MPI), running on     1 processors

     MPI processes distributed on     1 nodes

     Reading data from directory:
     ./germanium.save/
     Message from routine volume:
     axis vectors are left-handed
     Message from routine volume:
     axis vectors are left-handed

     IMPORTANT: XC functional enforced from input :
     Exchange-correlation      = PBE ( 1  4  3  4 0 0)
     Any further DFT definition will be discarded
     Please, verify this is what you really want

               file Ge.pbe-kjpaw.UPF: wavefunction(s)  4S renormalized

     G-vector sticks info
     --------------------
     sticks:   dense  smooth     PW     G-vecs:    dense   smooth      PW
     Sum         793     793    241                14553    14553    2421


     negative rho (up, down):  4.877E-02 0.000E+00
     high-symmetry point:  0.0000 0.0000 0.0000   x coordinate   0.0000
     high-symmetry point:  0.0000 1.0000 0.0000   x coordinate   1.0000
     high-symmetry point:  0.0000 1.0000 0.5000   x coordinate   1.5000
     high-symmetry point:  0.0000 0.7500 0.7500   x coordinate   1.8536
     high-symmetry point:  0.0000 0.0000 0.0000   x coordinate   2.9142
     high-symmetry point:  0.5000 0.5000 0.5000   x coordinate   3.7802
     high-symmetry point:  0.2500 1.0000 0.2500   x coordinate   4.3926
     high-symmetry point:  0.0000 1.0000 0.5000   x coordinate   4.7462
     high-symmetry point:  0.5000 0.5000 0.5000   x coordinate   5.4533
     high-symmetry point:  0.0000 0.7500 0.7500   x coordinate   6.0656
     high-symmetry point:  0.0000 1.0000 0.0000   x coordinate   6.8562

     Plottable bands (eV) written to file bandsgermanium.dat.gnu
     Bands written to file bandsgermanium.dat

 **************************************************************************

                    xk=(   0.00000,   0.00000,   0.00000  )

     point group O_h (m-3m) 
     there are 10 classes
     the character table:

       E     8C3   3C2   6C4   6C2'  i     8S6   3s_h  6S4   6s_d 
A_1g   1.00  1.00  1.00  1.00  1.00  1.00  1.00  1.00  1.00  1.00
A_2g   1.00  1.00  1.00 -1.00 -1.00  1.00  1.00  1.00 -1.00 -1.00
E_g    2.00 -1.00  2.00  0.00  0.00  2.00 -1.00  2.00  0.00  0.00
T_1g   3.00  0.00 -1.00  1.00 -1.00  3.00  0.00 -1.00  1.00 -1.00
T_2g   3.00  0.00 -1.00 -1.00  1.00  3.00  0.00 -1.00 -1.00  1.00
A_1u   1.00  1.00  1.00  1.00  1.00 -1.00 -1.00 -1.00 -1.00 -1.00
A_2u   1.00  1.00  1.00 -1.00 -1.00 -1.00 -1.00 -1.00  1.00  1.00
E_u    2.00 -1.00  2.00  0.00  0.00 -2.00  1.00 -2.00  0.00  0.00
T_1u   3.00  0.00 -1.00  1.00 -1.00 -3.00  0.00  1.00 -1.00  1.00
T_2u   3.00  0.00 -1.00 -1.00  1.00 -3.00  0.00  1.00  1.00 -1.00

     the symmetry operations in each class and the name of the first element:

     E        1
                                                                 
     8C3     17   19   20   18   24   21   22   23
                                                                 
     3C2      2    4    3
                                                                 
     6C4      7    8   15   16   12   11
                                                                 
     6C2'     5    6   14   13   10    9
                                                                 
     i       25
                                                                 
     8S6     41   43   44   42   48   45   46   47
                                                                 
     3s_h    26   28   27
                                                                 
     6S4     31   32   39   40   36   35
                                                                 
     6s_d    29   30   38   37   34   33
                                                                 

     Band symmetry, O_h (m-3m)  point group:

     e(  1 -  1) =     -6.84757  eV     1   --> A_1g G_1   G_1+
     e(  2 -  4) =      5.90106  eV     3   --> T_2g G_25' G_5+
     e(  5 -  5) =      6.03555  eV     1   --> A_2u G_2'  G_2-
     e(  6 -  8) =      8.48205  eV     3   --> T_1u G_15  G_4-
     e(  9 -  9) =     12.49748  eV     1   --> A_1g G_1   G_1+
     e( 10 - 10) =     15.32395  eV     1   -->   ?

 **************************************************************************

 **************************************************************************

                    xk=(   0.00000,   0.03333,   0.00000  )

     point group C_4v (4mm) 
     there are  5 classes
     the character table:

       E     2C4   C2    2s_v  2s_d 
A_1    1.00  1.00  1.00  1.00  1.00
A_2    1.00  1.00  1.00 -1.00 -1.00
B_1    1.00 -1.00  1.00  1.00 -1.00
B_2    1.00 -1.00  1.00 -1.00  1.00
E      2.00  0.00 -2.00  0.00  0.00

     the symmetry operations in each class and the name of the first element:

     E        1
                                                                 
     2C4      3    4
                                                                 
     C2       2
                                                                 
     2s_v     5    6
                                                                 
     2s_d     7    8
                                                                 

     Band symmetry, C_4v (4mm)  point group:

     e(  1 -  1) =     -6.84307  eV     1   --> A_1  G_1 D_1   
     e(  2 -  2) =      5.63559  eV     1   --> B_2  G_4 D_2'  
     e(  3 -  4) =      5.87777  eV     2   --> E    G_5 D_5   
     e(  5 -  5) =      6.29970  eV     1   --> B_2  G_4 D_2'  
     e(  6 -  6) =      8.46651  eV     1   --> A_1  G_1 D_1   
     e(  7 -  8) =      8.51141  eV     2   --> E    G_5 D_5   
     e(  9 -  9) =     12.52329  eV     1   --> A_1  G_1 D_1   
     e( 10 - 10) =     15.23653  eV     1   --> B_2  G_4 D_2'  

 **************************************************************************

 **************************************************************************

                    xk=(   0.00000,   0.06667,   0.00000  )

     Band symmetry, C_4v (4mm)  point group:

     e(  1 -  1) =     -6.82956  eV     1   --> A_1  G_1 D_1   
     e(  2 -  2) =      5.31270  eV     1   --> B_2  G_4 D_2'  
     e(  3 -  4) =      5.81099  eV     2   --> E    G_5 D_5   
     e(  5 -  5) =      6.61833  eV     1   --> B_2  G_4 D_2'  
     e(  6 -  6) =      8.42115  eV     1   --> A_1  G_1 D_1   
     e(  7 -  8) =      8.59635  eV     2   --> E    G_5 D_5   
     e(  9 -  9) =     12.59944  eV     1   --> A_1  G_1 D_1   
     e( 10 - 10) =     15.01311  eV     1   --> B_2  G_4 D_2'  

 **************************************************************************

 **************************************************************************

                    xk=(   0.00000,   0.10000,   0.00000  )

     Band symmetry, C_4v (4mm)  point group:

     e(  1 -  1) =     -6.80706  eV     1   --> A_1  G_1 D_1   
     e(  2 -  2) =      4.98774  eV     1   --> B_2  G_4 D_2'  
     e(  3 -  4) =      5.70847  eV     2   --> E    G_5 D_5   
     e(  5 -  5) =      6.93519  eV     1   --> B_2  G_4 D_2'  
     e(  6 -  6) =      8.34940  eV     1   --> A_1  G_1 D_1   
     e(  7 -  8) =      8.72909  eV     2   --> E    G_5 D_5   
     e(  9 -  9) =     12.72244  eV     1   --> A_1  G_1 D_1   
     e( 10 - 10) =     14.71758  eV     1   --> B_2  G_4 D_2'  

 **************************************************************************

 **************************************************************************

                    xk=(   0.00000,   0.13333,   0.00000  )

     Band symmetry, C_4v (4mm)  point group:

     e(  1 -  1) =     -6.77557  eV     1   --> A_1  G_1 D_1   
     e(  2 -  2) =      4.66286  eV     1   --> B_2  G_4 D_2'  
     e(  3 -  4) =      5.57952  eV     2   --> E    G_5 D_5   
     e(  5 -  5) =      7.24648  eV     1   --> B_2  G_4 D_2'  
     e(  6 -  6) =      8.25604  eV     1   --> A_1  G_1 D_1   
     e(  7 -  8) =      8.90022  eV     2   --> E    G_5 D_5   
     e(  9 -  9) =     12.88742  eV     1   --> A_1  G_1 D_1   
     e( 10 - 10) =     14.39245  eV     1   --> B_2  G_4 D_2'  

 **************************************************************************

 **************************************************************************

                    xk=(   0.00000,   0.16667,   0.00000  )

     Band symmetry, C_4v (4mm)  point group:

     e(  1 -  1) =     -6.73512  eV     1   --> A_1  G_1 D_1   
     e(  2 -  2) =      4.33878  eV     1   --> B_2  G_4 D_2'  
     e(  3 -  4) =      5.43266  eV     2   --> E    G_5 D_5   
     e(  5 -  5) =      7.54900  eV     1   --> B_2  G_4 D_2'  
     e(  6 -  6) =      8.14624  eV     1   --> A_1  G_1 D_1   
     e(  7 -  8) =      9.10110  eV     2   --> E    G_5 D_5   
     e(  9 -  9) =     13.08904  eV     1   --> A_1  G_1 D_1   
     e( 10 - 10) =     14.06190  eV     1   --> B_2  G_4 D_2'  

 **************************************************************************

 **************************************************************************

                    xk=(   0.00000,   0.20000,   0.00000  )

     Band symmetry, C_4v (4mm)  point group:

     e(  1 -  1) =     -6.68572  eV     1   --> A_1  G_1 D_1   
     e(  2 -  2) =      4.01588  eV     1   --> B_2  G_4 D_2'  
     e(  3 -  4) =      5.27468  eV     2   --> E    G_5 D_5   
     e(  5 -  5) =      7.83870  eV     1   --> B_2  G_4 D_2'  
     e(  6 -  6) =      8.02494  eV     1   --> A_1  G_1 D_1   
     e(  7 -  8) =      9.32481  eV     2   --> E    G_5 D_5   
     e(  9 -  9) =     13.32219  eV     1   --> A_1  G_1 D_1   
     e( 10 - 10) =     13.74135  eV     1   --> B_2  G_4 D_2'  

 **************************************************************************

 **************************************************************************

                    xk=(   0.00000,   0.23333,   0.00000  )

     Band symmetry, C_4v (4mm)  point group:

     e(  1 -  1) =     -6.62740  eV     1   --> A_1  G_1 D_1   
     e(  2 -  2) =      3.69441  eV     1   --> B_2  G_4 D_2'  
     e(  3 -  4) =      5.11065  eV     2   --> E    G_5 D_5   
     e(  5 -  5) =      7.89645  eV     1   --> A_1  G_1 D_1   
     e(  6 -  6) =      8.11020  eV     1   --> B_2  G_4 D_2'  
     e(  7 -  8) =      9.56609  eV     2   --> E    G_5 D_5   
     e(  9 -  9) =     13.44280  eV     1   --> B_2  G_4 D_2'  
     e( 10 - 10) =     13.58229  eV     1   --> A_1  G_1 D_1   

 **************************************************************************

 **************************************************************************

                    xk=(   0.00000,   0.26667,   0.00000  )

     Band symmetry, C_4v (4mm)  point group:

     e(  1 -  1) =     -6.56019  eV     1   --> A_1  G_1 D_1   
     e(  2 -  2) =      3.37454  eV     1   --> B_2  G_4 D_2'  
     e(  3 -  4) =      4.94427  eV     2   --> E    G_5 D_5   
     e(  5 -  5) =      7.76436  eV     1   --> A_1  G_1 D_1   
     e(  6 -  6) =      8.35630  eV     1   --> B_2  G_4 D_2'  
     e(  7 -  8) =      9.82104  eV     2   --> E    G_5 D_5   
     e(  9 -  9) =     13.17750  eV     1   --> B_2  G_4 D_2'  
     e( 10 - 10) =     13.86539  eV     1   --> A_1  G_1 D_1   

 **************************************************************************

 **************************************************************************

                    xk=(   0.00000,   0.30000,   0.00000  )

     Band symmetry, C_4v (4mm)  point group:

     e(  1 -  1) =     -6.48414  eV     1   --> A_1  G_1 D_1   
     e(  2 -  2) =      3.05642  eV     1   --> B_2  G_4 D_2'  
     e(  3 -  4) =      4.77824  eV     2   --> E    G_5 D_5   
     e(  5 -  5) =      7.63160  eV     1   --> A_1  G_1 D_1   
     e(  6 -  6) =      8.56785  eV     1   --> B_2  G_4 D_2'  
     e(  7 -  8) =     10.08677  eV     2   --> E    G_5 D_5   
     e(  9 -  9) =     12.95723  eV     1   --> B_2  G_4 D_2'  
     e( 10 - 10) =     14.16815  eV     1   --> A_1  G_1 D_1   

 **************************************************************************

 **************************************************************************

                    xk=(   0.00000,   0.33333,   0.00000  )

     Band symmetry, C_4v (4mm)  point group:

     e(  1 -  1) =     -6.39928  eV     1   --> A_1  G_1 D_1   
     e(  2 -  2) =      2.74015  eV     1   --> B_2  G_4 D_2'  
     e(  3 -  4) =      4.61453  eV     2   --> E    G_5 D_5   
     e(  5 -  5) =      7.50049  eV     1   --> A_1  G_1 D_1   
     e(  6 -  6) =      8.73413  eV     1   --> B_2  G_4 D_2'  
     e(  7 -  8) =     10.36107  eV     2   --> E    G_5 D_5   
     e(  9 -  9) =     12.79442  eV     1   --> B_2  G_4 D_2'  
     e( 10 - 10) =     14.48767  eV     1   --> A_1  G_1 D_1   

 **************************************************************************

 **************************************************************************

                    xk=(   0.00000,   0.36667,   0.00000  )

     Band symmetry, C_4v (4mm)  point group:

     e(  1 -  1) =     -6.30567  eV     1   --> A_1  G_1 D_1   
     e(  2 -  2) =      2.42582  eV     1   --> B_2  G_4 D_2'  
     e(  3 -  4) =      4.45462  eV     2   --> E    G_5 D_5   
     e(  5 -  5) =      7.37288  eV     1   --> A_1  G_1 D_1   
     e(  6 -  6) =      8.84473  eV     1   --> B_2  G_4 D_2'  
     e(  7 -  8) =     10.64223  eV     2   --> E    G_5 D_5   
     e(  9 -  9) =     12.70060  eV     1   --> B_2  G_4 D_2'  
     e( 10 - 10) =     14.82138  eV     1   --> A_1  G_1 D_1   

 **************************************************************************

 **************************************************************************

                    xk=(   0.00000,   0.40000,   0.00000  )

     Band symmetry, C_4v (4mm)  point group:

     e(  1 -  1) =     -6.20335  eV     1   --> A_1  G_1 D_1   
     e(  2 -  2) =      2.11352  eV     1   --> B_2  G_4 D_2'  
     e(  3 -  4) =      4.29963  eV     2   --> E    G_5 D_5   
     e(  5 -  5) =      7.25026  eV     1   --> A_1  G_1 D_1   
     e(  6 -  6) =      8.89286  eV     1   --> B_2  G_4 D_2'  
     e(  7 -  8) =     10.92891  eV     2   --> E    G_5 D_5   
     e(  9 -  9) =     12.68328  eV     1   --> B_2  G_4 D_2'  
     e( 10 - 10) =     15.16687  eV     1   --> A_1  G_1 D_1   

 **************************************************************************

 **************************************************************************

                    xk=(   0.00000,   0.43333,   0.00000  )

     Band symmetry, C_4v (4mm)  point group:

     e(  1 -  1) =     -6.09240  eV     1   --> A_1  G_1 D_1   
     e(  2 -  2) =      1.80334  eV     1   --> B_2  G_4 D_2'  
     e(  3 -  4) =      4.15040  eV     2   --> E    G_5 D_5   
     e(  5 -  5) =      7.13381  eV     1   --> A_1  G_1 D_1   
     e(  6 -  6) =      8.87860  eV     1   --> B_2  G_4 D_2'  
     e(  7 -  8) =     11.22000  eV     2   --> E    G_5 D_5   
     e(  9 -  9) =     12.74280  eV     1   --> B_2  G_4 D_2'  
     e( 10 - 10) =     15.52171  eV     1   --> A_1  G_1 D_1   

 **************************************************************************

 **************************************************************************

                    xk=(   0.00000,   0.46667,   0.00000  )

     Band symmetry, C_4v (4mm)  point group:

     e(  1 -  1) =     -5.97288  eV     1   --> A_1  G_1 D_1   
     e(  2 -  2) =      1.49538  eV     1   --> B_2  G_4 D_2'  
     e(  3 -  4) =      4.00763  eV     2   --> E    G_5 D_5   
     e(  5 -  5) =      7.02448  eV     1   --> A_1  G_1 D_1   
     e(  6 -  6) =      8.80940  eV     1   --> B_2  G_4 D_2'  
     e(  7 -  8) =     11.51458  eV     2   --> E    G_5 D_5   
     e(  9 -  9) =     12.87188  eV     1   --> B_2  G_4 D_2'  
     e( 10 - 10) =     15.88334  eV     1   --> A_1  G_1 D_1   

 **************************************************************************

 **************************************************************************

                    xk=(   0.00000,   0.50000,   0.00000  )

     Band symmetry, C_4v (4mm)  point group:

     e(  1 -  1) =     -5.84486  eV     1   --> A_1  G_1 D_1   
     e(  2 -  2) =      1.18977  eV     1   --> B_2  G_4 D_2'  
     e(  3 -  4) =      3.87183  eV     2   --> E    G_5 D_5   
     e(  5 -  5) =      6.92306  eV     1   --> A_1  G_1 D_1   
     e(  6 -  6) =      8.69730  eV     1   --> B_2  G_4 D_2'  
     e(  7 -  8) =     11.81185  eV     2   --> E    G_5 D_5   
     e(  9 -  9) =     13.05848  eV     1   --> B_2  G_4 D_2'  
     e( 10 - 10) =     16.24882  eV     1   --> A_1  G_1 D_1   

 **************************************************************************

 **************************************************************************

                    xk=(   0.00000,   0.53333,   0.00000  )

     Band symmetry, C_4v (4mm)  point group:

     e(  1 -  1) =     -5.70844  eV     1   --> A_1  G_1 D_1   
     e(  2 -  2) =      0.88662  eV     1   --> B_2  G_4 D_2'  
     e(  3 -  4) =      3.74346  eV     2   --> E    G_5 D_5   
     e(  5 -  5) =      6.83018  eV     1   --> A_1  G_1 D_1   
     e(  6 -  6) =      8.55519  eV     1   --> B_2  G_4 D_2'  
     e(  7 -  8) =     12.11111  eV     2   --> E    G_5 D_5   
     e(  9 -  9) =     13.28960  eV     1   --> B_2  G_4 D_2'  
     e( 10 - 10) =     16.61461  eV     1   --> A_1  G_1 D_1   

 **************************************************************************

 **************************************************************************

                    xk=(   0.00000,   0.56667,   0.00000  )

     Band symmetry, C_4v (4mm)  point group:

     e(  1 -  1) =     -5.56371  eV     1   --> A_1  G_1 D_1   
     e(  2 -  2) =      0.58609  eV     1   --> B_2  G_4 D_2'  
     e(  3 -  4) =      3.62286  eV     2   --> E    G_5 D_5   
     e(  5 -  5) =      6.74640  eV     1   --> A_1  G_1 D_1   
     e(  6 -  6) =      8.39431  eV     1   --> B_2  G_4 D_2'  
     e(  7 -  8) =     12.41166  eV     2   --> E    G_5 D_5   
     e(  9 -  9) =     13.55372  eV     1   --> B_2  G_4 D_2'  
     e( 10 - 10) =     16.79304  eV     1   --> A_2  G_2 D_1'  

 **************************************************************************

 **************************************************************************

                    xk=(   0.00000,   0.60000,   0.00000  )

     Band symmetry, C_4v (4mm)  point group:

     e(  1 -  1) =     -5.41075  eV     1   --> A_1  G_1 D_1   
     e(  2 -  2) =      0.28836  eV     1   --> B_2  G_4 D_2'  
     e(  3 -  4) =      3.51032  eV     2   --> E    G_5 D_5   
     e(  5 -  5) =      6.67216  eV     1   --> A_1  G_1 D_1   
     e(  6 -  6) =      8.22346  eV     1   --> B_2  G_4 D_2'  
     e(  7 -  8) =     12.71284  eV     2   --> E    G_5 D_5   
     e(  9 -  9) =     13.84171  eV     1   --> B_2  G_4 D_2'  
     e( 10 - 10) =     16.97071  eV     1   --> A_2  G_2 D_1'  

 **************************************************************************

 **************************************************************************

                    xk=(   0.00000,   0.63333,   0.00000  )

     Band symmetry, C_4v (4mm)  point group:

     e(  1 -  1) =     -5.24969  eV     1   --> A_1  G_1 D_1   
     e(  2 -  2) =     -0.00640  eV     1   --> B_2  G_4 D_2'  
     e(  3 -  4) =      3.40609  eV     2   --> E    G_5 D_5   
     e(  5 -  5) =      6.60787  eV     1   --> A_1  G_1 D_1   
     e(  6 -  6) =      8.04915  eV     1   --> B_2  G_4 D_2'  
     e(  7 -  8) =     13.01387  eV     2   --> E    G_5 D_5   
     e(  9 -  9) =     14.14664  eV     1   --> B_2  G_4 D_2'  
     e( 10 - 10) =     17.15846  eV     1   --> A_2  G_2 D_1'  

 **************************************************************************

 **************************************************************************

                    xk=(   0.00000,   0.66667,   0.00000  )

     Band symmetry, C_4v (4mm)  point group:

     e(  1 -  1) =     -5.08065  eV     1   --> A_1  G_1 D_1   
     e(  2 -  2) =     -0.29797  eV     1   --> B_2  G_4 D_2'  
     e(  3 -  4) =      3.31037  eV     2   --> E    G_5 D_5   
     e(  5 -  5) =      6.55385  eV     1   --> A_1  G_1 D_1   
     e(  6 -  6) =      7.87608  eV     1   --> B_2  G_4 D_2'  
     e(  7 -  8) =     13.31387  eV     2   --> E    G_5 D_5   
     e(  9 -  9) =     14.46333  eV     1   --> B_2  G_4 D_2'  
     e( 10 - 10) =     17.35630  eV     1   --> A_2  G_2 D_1'  

 **************************************************************************

 **************************************************************************

                    xk=(   0.00000,   0.70000,   0.00000  )

     Band symmetry, C_4v (4mm)  point group:

     e(  1 -  1) =     -4.90375  eV     1   --> A_1  G_1 D_1   
     e(  2 -  2) =     -0.58613  eV     1   --> B_2  G_4 D_2'  
     e(  3 -  4) =      3.22334  eV     2   --> E    G_5 D_5   
     e(  5 -  5) =      6.51042  eV     1   --> A_1  G_1 D_1   
     e(  6 -  6) =      7.70759  eV     1   --> B_2  G_4 D_2'  
     e(  7 -  8) =     13.61168  eV     2   --> E    G_5 D_5   
     e(  9 -  9) =     14.78787  eV     1   --> B_2  G_4 D_2'  
     e( 10 - 10) =     17.56420  eV     1   --> A_2  G_2 D_1'  

 **************************************************************************

 **************************************************************************

                    xk=(   0.00000,   0.73333,   0.00000  )

     Band symmetry, C_4v (4mm)  point group:

     e(  1 -  1) =     -4.71913  eV     1   --> A_1  G_1 D_1   
     e(  2 -  2) =     -0.87065  eV     1   --> B_2  G_4 D_2'  
     e(  3 -  4) =      3.14513  eV     2   --> E    G_5 D_5   
     e(  5 -  5) =      6.47784  eV     1   --> A_1  G_1 D_1   
     e(  6 -  6) =      7.54606  eV     1   --> B_2  G_4 D_2'  
     e(  7 -  8) =     13.90575  eV     2   --> E    G_5 D_5   
     e(  9 -  9) =     15.11725  eV     1   --> B_2  G_4 D_2'  
     e( 10 - 10) =     17.78215  eV     1   --> A_2  G_2 D_1'  

 **************************************************************************

 **************************************************************************

                    xk=(   0.00000,   0.76667,   0.00000  )

     Band symmetry, C_4v (4mm)  point group:

     e(  1 -  1) =     -4.52694  eV     1   --> A_1  G_1 D_1   
     e(  2 -  2) =     -1.15127  eV     1   --> B_2  G_4 D_2'  
     e(  3 -  4) =      3.07587  eV     2   --> E    G_5 D_5   
     e(  5 -  5) =      6.45634  eV     1   --> A_1  G_1 D_1   
     e(  6 -  6) =      7.39320  eV     1   --> B_2  G_4 D_2'  
     e(  7 -  8) =     14.19390  eV     2   --> E    G_5 D_5   
     e(  9 -  9) =     15.44907  eV     1   --> B_2  G_4 D_2'  
     e( 10 - 10) =     18.01013  eV     1   --> A_2  G_2 D_1'  

 **************************************************************************

 **************************************************************************

                    xk=(   0.00000,   0.80000,   0.00000  )

     Band symmetry, C_4v (4mm)  point group:

     e(  1 -  1) =     -4.32734  eV     1   --> A_1  G_1 D_1   
     e(  2 -  2) =     -1.42775  eV     1   --> B_2  G_4 D_2'  
     e(  3 -  4) =      3.01565  eV     2   --> E    G_5 D_5   
     e(  5 -  5) =      6.44614  eV     1   --> A_1  G_1 D_1   
     e(  6 -  6) =      7.25018  eV     1   --> B_2  G_4 D_2'  
     e(  7 -  8) =     14.47299  eV     2   --> E    G_5 D_5   
     e(  9 -  9) =     15.78127  eV     1   --> B_2  G_4 D_2'  
     e( 10 - 10) =     18.24813  eV     1   --> A_2  G_2 D_1'  

 **************************************************************************

 **************************************************************************

                    xk=(   0.00000,   0.83333,   0.00000  )

     Band symmetry, C_4v (4mm)  point group:

     e(  1 -  1) =     -4.12051  eV     1   --> A_1  G_1 D_1   
     e(  2 -  2) =     -1.69980  eV     1   --> B_2  G_4 D_2'  
     e(  3 -  4) =      2.96457  eV     2   --> E    G_5 D_5   
     e(  5 -  5) =      6.44745  eV     1   --> A_1  G_1 D_1   
     e(  6 -  6) =      7.11787  eV     1   --> B_2  G_4 D_2'  
     e(  7 -  8) =     14.73840  eV     2   --> E    G_5 D_5   
     e(  9 -  9) =     16.11200  eV     1   --> B_2  G_4 D_2'  
     e( 10 - 10) =     18.49613  eV     1   --> A_2  G_2 D_1'  

 **************************************************************************

 **************************************************************************

                    xk=(   0.00000,   0.86667,   0.00000  )

     Band symmetry, C_4v (4mm)  point group:

     e(  1 -  1) =     -3.90662  eV     1   --> A_1  G_1 D_1   
     e(  2 -  2) =     -1.96718  eV     1   --> B_2  G_4 D_2'  
     e(  3 -  4) =      2.92269  eV     2   --> E    G_5 D_5   
     e(  5 -  5) =      6.46042  eV     1   --> A_1  G_1 D_1   
     e(  6 -  6) =      6.99685  eV     1   --> B_2  G_4 D_2'  
     e(  7 -  8) =     14.98335  eV     2   --> E    G_5 D_5   
     e(  9 -  9) =     16.43941  eV     1   --> B_2  G_4 D_2'  
     e( 10 - 10) =     18.53622  eV     1   --> A_1  G_1 D_1   

 **************************************************************************

 **************************************************************************

                    xk=(   0.00000,   0.90000,   0.00000  )

     Band symmetry, C_4v (4mm)  point group:

     e(  1 -  1) =     -3.68587  eV     1   --> A_1  G_1 D_1   
     e(  2 -  2) =     -2.22961  eV     1   --> B_2  G_4 D_2'  
     e(  3 -  4) =      2.89006  eV     2   --> E    G_5 D_5   
     e(  5 -  5) =      6.48522  eV     1   --> A_1  G_1 D_1   
     e(  6 -  6) =      6.88752  eV     1   --> B_2  G_4 D_2'  
     e(  7 -  8) =     15.19811  eV     2   --> E    G_5 D_5   
     e(  9 -  9) =     16.76147  eV     1   --> B_2  G_4 D_2'  
     e( 10 - 10) =     18.38133  eV     1   --> A_1  G_1 D_1   

 **************************************************************************

 **************************************************************************

                    xk=(   0.00000,   0.93333,   0.00000  )

     Band symmetry, C_4v (4mm)  point group:

     e(  1 -  1) =     -3.45847  eV     1   --> A_1  G_1 D_1   
     e(  2 -  2) =     -2.48682  eV     1   --> B_2  G_4 D_2'  
     e(  3 -  4) =      2.86673  eV     2   --> E    G_5 D_5   
     e(  5 -  5) =      6.52197  eV     1   --> A_1  G_1 D_1   
     e(  6 -  6) =      6.79014  eV     1   --> B_2  G_4 D_2'  
     e(  7 -  8) =     15.36945  eV     2   --> E    G_5 D_5   
     e(  9 -  9) =     17.07577  eV     1   --> B_2  G_4 D_2'  
     e( 10 - 10) =     18.17741  eV     1   --> A_1  G_1 D_1   

 **************************************************************************

 **************************************************************************

                    xk=(   0.00000,   0.96667,   0.00000  )

     Band symmetry, C_4v (4mm)  point group:

     e(  1 -  1) =     -3.22463  eV     1   --> A_1  G_1 D_1   
     e(  2 -  2) =     -2.73857  eV     1   --> B_2  G_4 D_2'  
     e(  3 -  4) =      2.85271  eV     2   --> E    G_5 D_5   
     e(  5 -  5) =      6.57078  eV     1   --> A_1  G_1 D_1   
     e(  6 -  6) =      6.70485  eV     1   --> B_2  G_4 D_2'  
     e(  7 -  8) =     15.48176  eV     2   --> E    G_5 D_5   
     e(  9 -  9) =     17.37927  eV     1   --> B_2  G_4 D_2'  
     e( 10 - 10) =     17.93643  eV     1   --> A_1  G_1 D_1   

 **************************************************************************

 **************************************************************************

                    xk=(   0.00000,   1.00000,   0.00000  )

     zone border point and non-symmorphic group 
     symmetry decomposition not available

 **************************************************************************

 **************************************************************************

                    xk=(   0.00000,   1.00000,   0.01667  )

     zone border point and non-symmorphic group 
     symmetry decomposition not available

 **************************************************************************

 **************************************************************************

                    xk=(  -0.00000,   1.00000,   0.03333  )

     zone border point and non-symmorphic group 
     symmetry decomposition not available

 **************************************************************************

 **************************************************************************

                    xk=(   0.00000,   1.00000,   0.05000  )

     zone border point and non-symmorphic group 
     symmetry decomposition not available

 **************************************************************************

 **************************************************************************

                    xk=(   0.00000,   1.00000,   0.06667  )

     zone border point and non-symmorphic group 
     symmetry decomposition not available

 **************************************************************************

 **************************************************************************

                    xk=(   0.00000,   1.00000,   0.08333  )

     zone border point and non-symmorphic group 
     symmetry decomposition not available

 **************************************************************************

 **************************************************************************

                    xk=(   0.00000,   1.00000,   0.10000  )

     zone border point and non-symmorphic group 
     symmetry decomposition not available

 **************************************************************************

 **************************************************************************

                    xk=(   0.00000,   1.00000,   0.11667  )

     zone border point and non-symmorphic group 
     symmetry decomposition not available

 **************************************************************************

 **************************************************************************

                    xk=(   0.00000,   1.00000,   0.13333  )

     zone border point and non-symmorphic group 
     symmetry decomposition not available

 **************************************************************************

 **************************************************************************

                    xk=(   0.00000,   1.00000,   0.15000  )

     zone border point and non-symmorphic group 
     symmetry decomposition not available

 **************************************************************************

 **************************************************************************

                    xk=(   0.00000,   1.00000,   0.16667  )

     zone border point and non-symmorphic group 
     symmetry decomposition not available

 **************************************************************************

 **************************************************************************

                    xk=(   0.00000,   1.00000,   0.18333  )

     zone border point and non-symmorphic group 
     symmetry decomposition not available

 **************************************************************************

 **************************************************************************

                    xk=(   0.00000,   1.00000,   0.20000  )

     zone border point and non-symmorphic group 
     symmetry decomposition not available

 **************************************************************************

 **************************************************************************

                    xk=(  -0.00000,   1.00000,   0.21667  )

     zone border point and non-symmorphic group 
     symmetry decomposition not available

 **************************************************************************

 **************************************************************************

                    xk=(  -0.00000,   1.00000,   0.23333  )

     zone border point and non-symmorphic group 
     symmetry decomposition not available

 **************************************************************************

 **************************************************************************

                    xk=(   0.00000,   1.00000,   0.25000  )

     zone border point and non-symmorphic group 
     symmetry decomposition not available

 **************************************************************************

 **************************************************************************

                    xk=(   0.00000,   1.00000,   0.26667  )

     zone border point and non-symmorphic group 
     symmetry decomposition not available

 **************************************************************************

 **************************************************************************

                    xk=(   0.00000,   1.00000,   0.28333  )

     zone border point and non-symmorphic group 
     symmetry decomposition not available

 **************************************************************************

 **************************************************************************

                    xk=(   0.00000,   1.00000,   0.30000  )

     zone border point and non-symmorphic group 
     symmetry decomposition not available

 **************************************************************************

 **************************************************************************

                    xk=(   0.00000,   1.00000,   0.31667  )

     zone border point and non-symmorphic group 
     symmetry decomposition not available

 **************************************************************************

 **************************************************************************

                    xk=(   0.00000,   1.00000,   0.33333  )

     zone border point and non-symmorphic group 
     symmetry decomposition not available

 **************************************************************************

 **************************************************************************

                    xk=(   0.00000,   1.00000,   0.35000  )

     zone border point and non-symmorphic group 
     symmetry decomposition not available

 **************************************************************************

 **************************************************************************

                    xk=(   0.00000,   1.00000,   0.36667  )

     zone border point and non-symmorphic group 
     symmetry decomposition not available

 **************************************************************************

 **************************************************************************

                    xk=(   0.00000,   1.00000,   0.38333  )

     zone border point and non-symmorphic group 
     symmetry decomposition not available

 **************************************************************************

 **************************************************************************

                    xk=(   0.00000,   1.00000,   0.40000  )

     zone border point and non-symmorphic group 
     symmetry decomposition not available

 **************************************************************************

 **************************************************************************

                    xk=(  -0.00000,   1.00000,   0.41667  )

     zone border point and non-symmorphic group 
     symmetry decomposition not available

 **************************************************************************

 **************************************************************************

                    xk=(   0.00000,   1.00000,   0.43333  )

     zone border point and non-symmorphic group 
     symmetry decomposition not available

 **************************************************************************

 **************************************************************************

                    xk=(   0.00000,   1.00000,   0.45000  )

     zone border point and non-symmorphic group 
     symmetry decomposition not available

 **************************************************************************

 **************************************************************************

                    xk=(   0.00000,   1.00000,   0.46667  )

     zone border point and non-symmorphic group 
     symmetry decomposition not available

 **************************************************************************

 **************************************************************************

                    xk=(   0.00000,   1.00000,   0.48333  )

     zone border point and non-symmorphic group 
     symmetry decomposition not available

 **************************************************************************

 **************************************************************************

                    xk=(   0.00000,   1.00000,   0.50000  )

     zone border point and non-symmorphic group 
     symmetry decomposition not available

 **************************************************************************

 **************************************************************************

                    xk=(   0.00000,   0.99167,   0.50833  )

     point group C_s (m)    
     there are  2 classes
     the character table:

       E     s    
A'     1.00  1.00
A''    1.00 -1.00

     the symmetry operations in each class and the name of the first element:

     E        1
                                                                 
     s        2
                                                                 

     Band symmetry, C_s (m)     point group:

     e(  1 -  1) =     -2.92490  eV     1   --> A'             
     e(  2 -  2) =     -2.85084  eV     1   --> A''            
     e(  3 -  3) =      1.97162  eV     1   --> A'             
     e(  4 -  4) =      2.02758  eV     1   --> A''            
     e(  5 -  5) =     10.21944  eV     1   --> A''            
     e(  6 -  6) =     10.32842  eV     1   --> A'             
     e(  7 -  7) =     10.66492  eV     1   --> A''            
     e(  8 -  8) =     10.68529  eV     1   --> A'             
     e(  9 -  9) =     16.93092  eV     1   --> A'             
     e( 10 - 10) =     17.08545  eV     1   --> A''            

 **************************************************************************

 **************************************************************************

                    xk=(   0.00000,   0.98333,   0.51667  )

     Band symmetry, C_s (m)     point group:

     e(  1 -  1) =     -2.96077  eV     1   --> A'             
     e(  2 -  2) =     -2.81548  eV     1   --> A''            
     e(  3 -  3) =      1.94532  eV     1   --> A'             
     e(  4 -  4) =      2.05948  eV     1   --> A''            
     e(  5 -  5) =     10.08265  eV     1   --> A''            
     e(  6 -  6) =     10.33633  eV     1   --> A'             
     e(  7 -  7) =     10.74076  eV     1   --> A''            
     e(  8 -  8) =     10.74533  eV     1   --> A'             
     e(  9 -  9) =     16.84740  eV     1   --> A'             
     e( 10 - 10) =     17.15496  eV     1   --> A''            

 **************************************************************************

 **************************************************************************

                    xk=(   0.00000,   0.97500,   0.52500  )

     Band symmetry, C_s (m)     point group:

     e(  1 -  1) =     -2.99541  eV     1   --> A'             
     e(  2 -  2) =     -2.78173  eV     1   --> A''            
     e(  3 -  3) =      1.91980  eV     1   --> A'             
     e(  4 -  4) =      2.09428  eV     1   --> A''            
     e(  5 -  5) =      9.93008  eV     1   --> A''            
     e(  6 -  6) =     10.33237  eV     1   --> A'             
     e(  7 -  7) =     10.81932  eV     1   --> A'             
     e(  8 -  8) =     10.83504  eV     1   --> A''            
     e(  9 -  9) =     16.76039  eV     1   --> A'             
     e( 10 - 10) =     17.21719  eV     1   --> A''            

 **************************************************************************

 **************************************************************************

                    xk=(   0.00000,   0.96667,   0.53333  )

     Band symmetry, C_s (m)     point group:

     e(  1 -  1) =     -3.02880  eV     1   --> A'             
     e(  2 -  2) =     -2.74958  eV     1   --> A''            
     e(  3 -  3) =      1.89507  eV     1   --> A'             
     e(  4 -  4) =      2.13191  eV     1   --> A''            
     e(  5 -  5) =      9.77306  eV     1   --> A''            
     e(  6 -  6) =     10.32157  eV     1   --> A'             
     e(  7 -  7) =     10.90221  eV     1   --> A'             
     e(  8 -  8) =     10.93649  eV     1   --> A''            
     e(  9 -  9) =     16.67031  eV     1   --> A'             
     e( 10 - 10) =     17.26999  eV     1   --> A''            

 **************************************************************************

 **************************************************************************

                    xk=(   0.00000,   0.95833,   0.54167  )

     Band symmetry, C_s (m)     point group:

     e(  1 -  1) =     -3.06095  eV     1   --> A'             
     e(  2 -  2) =     -2.71906  eV     1   --> A''            
     e(  3 -  3) =      1.87115  eV     1   --> A'             
     e(  4 -  4) =      2.17229  eV     1   --> A''            
     e(  5 -  5) =      9.61528  eV     1   --> A''            
     e(  6 -  6) =     10.30705  eV     1   --> A'             
     e(  7 -  7) =     10.99086  eV     1   --> A'             
     e(  8 -  8) =     11.04148  eV     1   --> A''            
     e(  9 -  9) =     16.57751  eV     1   --> A'             
     e( 10 - 10) =     17.31090  eV     1   --> A''            

 **************************************************************************

 **************************************************************************

                    xk=(   0.00000,   0.95000,   0.55000  )

     Band symmetry, C_s (m)     point group:

     e(  1 -  1) =     -3.09185  eV     1   --> A'             
     e(  2 -  2) =     -2.69013  eV     1   --> A''            
     e(  3 -  3) =      1.84805  eV     1   --> A'             
     e(  4 -  4) =      2.21529  eV     1   --> A''            
     e(  5 -  5) =      9.45828  eV     1   --> A''            
     e(  6 -  6) =     10.29058  eV     1   --> A'             
     e(  7 -  7) =     11.08346  eV     1   --> A'             
     e(  8 -  8) =     11.14856  eV     1   --> A''            
     e(  9 -  9) =     16.48228  eV     1   --> A'             
     e( 10 - 10) =     17.33730  eV     1   --> A''            

 **************************************************************************

 **************************************************************************

                    xk=(   0.00000,   0.94167,   0.55833  )

     Band symmetry, C_s (m)     point group:

     e(  1 -  1) =     -3.12150  eV     1   --> A'             
     e(  2 -  2) =     -2.66280  eV     1   --> A''            
     e(  3 -  3) =      1.82579  eV     1   --> A'             
     e(  4 -  4) =      2.26078  eV     1   --> A''            
     e(  5 -  5) =      9.30286  eV     1   --> A''            
     e(  6 -  6) =     10.27317  eV     1   --> A'             
     e(  7 -  7) =     11.17896  eV     1   --> A'             
     e(  8 -  8) =     11.25698  eV     1   --> A''            
     e(  9 -  9) =     16.38488  eV     1   --> A'             
     e( 10 - 10) =     17.34690  eV     1   --> A''            

 **************************************************************************

 **************************************************************************

                    xk=(   0.00000,   0.93333,   0.56667  )

     Band symmetry, C_s (m)     point group:

     e(  1 -  1) =     -3.14991  eV     1   --> A'             
     e(  2 -  2) =     -2.63705  eV     1   --> A''            
     e(  3 -  3) =      1.80438  eV     1   --> A'             
     e(  4 -  4) =      2.30861  eV     1   --> A''            
     e(  5 -  5) =      9.14953  eV     1   --> A''            
     e(  6 -  6) =     10.25544  eV     1   --> A'             
     e(  7 -  7) =     11.27672  eV     1   --> A'             
     e(  8 -  8) =     11.36633  eV     1   --> A''            
     e(  9 -  9) =     16.28552  eV     1   --> A'             
     e( 10 - 10) =     17.33829  eV     1   --> A''            

 **************************************************************************

 **************************************************************************

                    xk=(   0.00000,   0.92500,   0.57500  )

     Band symmetry, C_s (m)     point group:

     e(  1 -  1) =     -3.17706  eV     1   --> A'             
     e(  2 -  2) =     -2.61284  eV     1   --> A''            
     e(  3 -  3) =      1.78383  eV     1   --> A'             
     e(  4 -  4) =      2.35860  eV     1   --> A''            
     e(  5 -  5) =      8.99864  eV     1   --> A''            
     e(  6 -  6) =     10.23775  eV     1   --> A'             
     e(  7 -  7) =     11.37633  eV     1   --> A'             
     e(  8 -  8) =     11.47628  eV     1   --> A''            
     e(  9 -  9) =     16.18438  eV     1   --> A'             
     e( 10 - 10) =     17.31138  eV     1   --> A''            

 **************************************************************************

 **************************************************************************

                    xk=(   0.00000,   0.91667,   0.58333  )

     Band symmetry, C_s (m)     point group:

     e(  1 -  1) =     -3.20295  eV     1   --> A'             
     e(  2 -  2) =     -2.59016  eV     1   --> A''            
     e(  3 -  3) =      1.76416  eV     1   --> A'             
     e(  4 -  4) =      2.41056  eV     1   --> A''            
     e(  5 -  5) =      8.85053  eV     1   --> A''            
     e(  6 -  6) =     10.22035  eV     1   --> A'             
     e(  7 -  7) =     11.47751  eV     1   --> A'             
     e(  8 -  8) =     11.58659  eV     1   --> A''            
     e(  9 -  9) =     16.08164  eV     1   --> A'             
     e( 10 - 10) =     17.26744  eV     1   --> A''            

 **************************************************************************

 **************************************************************************

                    xk=(   0.00000,   0.90833,   0.59167  )

     Band symmetry, C_s (m)     point group:

     e(  1 -  1) =     -3.22759  eV     1   --> A'             
     e(  2 -  2) =     -2.56896  eV     1   --> A''            
     e(  3 -  3) =      1.74539  eV     1   --> A'             
     e(  4 -  4) =      2.46425  eV     1   --> A''            
     e(  5 -  5) =      8.70546  eV     1   --> A''            
     e(  6 -  6) =     10.20340  eV     1   --> A'             
     e(  7 -  7) =     11.58003  eV     1   --> A'             
     e(  8 -  8) =     11.69706  eV     1   --> A''            
     e(  9 -  9) =     15.97746  eV     1   --> A'             
     e( 10 - 10) =     17.20870  eV     1   --> A''            

 **************************************************************************

 **************************************************************************

                    xk=(   0.00000,   0.90000,   0.60000  )

     Band symmetry, C_s (m)     point group:

     e(  1 -  1) =     -3.25098  eV     1   --> A'             
     e(  2 -  2) =     -2.54920  eV     1   --> A''            
     e(  3 -  3) =      1.72751  eV     1   --> A'             
     e(  4 -  4) =      2.51944  eV     1   --> A''            
     e(  5 -  5) =      8.56373  eV     1   --> A''            
     e(  6 -  6) =     10.18703  eV     1   --> A'             
     e(  7 -  7) =     11.68373  eV     1   --> A'             
     e(  8 -  8) =     11.80744  eV     1   --> A''            
     e(  9 -  9) =     15.87199  eV     1   --> A'             
     e( 10 - 10) =     17.13780  eV     1   --> A''            

 **************************************************************************

 **************************************************************************

                    xk=(   0.00000,   0.89167,   0.60833  )

     Band symmetry, C_s (m)     point group:

     e(  1 -  1) =     -3.27311  eV     1   --> A'             
     e(  2 -  2) =     -2.53085  eV     1   --> A''            
     e(  3 -  3) =      1.71055  eV     1   --> A'             
     e(  4 -  4) =      2.57585  eV     1   --> A''            
     e(  5 -  5) =      8.42563  eV     1   --> A''            
     e(  6 -  6) =     10.17131  eV     1   --> A'             
     e(  7 -  7) =     11.78846  eV     1   --> A'             
     e(  8 -  8) =     11.91752  eV     1   --> A''            
     e(  9 -  9) =     15.76537  eV     1   --> A'             
     e( 10 - 10) =     17.05737  eV     1   --> A''            

 **************************************************************************

 **************************************************************************

                    xk=(   0.00000,   0.88333,   0.61667  )

     Band symmetry, C_s (m)     point group:

     e(  1 -  1) =     -3.29397  eV     1   --> A'             
     e(  2 -  2) =     -2.51387  eV     1   --> A''            
     e(  3 -  3) =      1.69450  eV     1   --> A'             
     e(  4 -  4) =      2.63315  eV     1   --> A''            
     e(  5 -  5) =      8.29147  eV     1   --> A''            
     e(  6 -  6) =     10.15632  eV     1   --> A'             
     e(  7 -  7) =     11.89410  eV     1   --> A'             
     e(  8 -  8) =     12.02703  eV     1   --> A''            
     e(  9 -  9) =     15.65776  eV     1   --> A'             
     e( 10 - 10) =     16.96974  eV     1   --> A''            

 **************************************************************************

 **************************************************************************

                    xk=(   0.00000,   0.87500,   0.62500  )

     Band symmetry, C_s (m)     point group:

     e(  1 -  1) =     -3.31358  eV     1   --> A'             
     e(  2 -  2) =     -2.49820  eV     1   --> A''            
     e(  3 -  3) =      1.67939  eV     1   --> A'             
     e(  4 -  4) =      2.69102  eV     1   --> A''            
     e(  5 -  5) =      8.16158  eV     1   --> A''            
     e(  6 -  6) =     10.14209  eV     1   --> A'             
     e(  7 -  7) =     12.00051  eV     1   --> A'             
     e(  8 -  8) =     12.13570  eV     1   --> A''            
     e(  9 -  9) =     15.54929  eV     1   --> A'             
     e( 10 - 10) =     16.87693  eV     1   --> A''            

 **************************************************************************

 **************************************************************************

                    xk=(   0.00000,   0.86667,   0.63333  )

     Band symmetry, C_s (m)     point group:

     e(  1 -  1) =     -3.33193  eV     1   --> A'             
     e(  2 -  2) =     -2.48381  eV     1   --> A''            
     e(  3 -  3) =      1.66521  eV     1   --> A'             
     e(  4 -  4) =      2.74906  eV     1   --> A''            
     e(  5 -  5) =      8.03632  eV     1   --> A''            
     e(  6 -  6) =     10.12867  eV     1   --> A'             
     e(  7 -  7) =     12.10757  eV     1   --> A'             
     e(  8 -  8) =     12.24319  eV     1   --> A''            
     e(  9 -  9) =     15.44013  eV     1   --> A'             
     e( 10 - 10) =     16.78066  eV     1   --> A''            

 **************************************************************************

 **************************************************************************

                    xk=(   0.00000,   0.85833,   0.64167  )

     Band symmetry, C_s (m)     point group:

     e(  1 -  1) =     -3.34902  eV     1   --> A'             
     e(  2 -  2) =     -2.47064  eV     1   --> A''            
     e(  3 -  3) =      1.65198  eV     1   --> A'             
     e(  4 -  4) =      2.80686  eV     1   --> A''            
     e(  5 -  5) =      7.91610  eV     1   --> A''            
     e(  6 -  6) =     10.11609  eV     1   --> A'             
     e(  7 -  7) =     12.21513  eV     1   --> A'             
     e(  8 -  8) =     12.34911  eV     1   --> A''            
     e(  9 -  9) =     15.33046  eV     1   --> A'             
     e( 10 - 10) =     16.68238  eV     1   --> A''            

 **************************************************************************

 **************************************************************************

                    xk=(   0.00000,   0.85000,   0.65000  )

     Band symmetry, C_s (m)     point group:

     e(  1 -  1) =     -3.36484  eV     1   --> A'             
     e(  2 -  2) =     -2.45866  eV     1   --> A''            
     e(  3 -  3) =      1.63970  eV     1   --> A'             
     e(  4 -  4) =      2.86396  eV     1   --> A''            
     e(  5 -  5) =      7.80135  eV     1   --> A''            
     e(  6 -  6) =     10.10437  eV     1   --> A'             
     e(  7 -  7) =     12.32303  eV     1   --> A'             
     e(  8 -  8) =     12.45303  eV     1   --> A''            
     e(  9 -  9) =     15.22045  eV     1   --> A'             
     e( 10 - 10) =     16.58341  eV     1   --> A''            

 **************************************************************************

 **************************************************************************

                    xk=(   0.00000,   0.84167,   0.65833  )

     Band symmetry, C_s (m)     point group:

     e(  1 -  1) =     -3.37940  eV     1   --> A'             
     e(  2 -  2) =     -2.44781  eV     1   --> A''            
     e(  3 -  3) =      1.62838  eV     1   --> A'             
     e(  4 -  4) =      2.91986  eV     1   --> A''            
     e(  5 -  5) =      7.69253  eV     1   --> A''            
     e(  6 -  6) =     10.09353  eV     1   --> A'             
     e(  7 -  7) =     12.43107  eV     1   --> A'             
     e(  8 -  8) =     12.55440  eV     1   --> A''            
     e(  9 -  9) =     15.11034  eV     1   --> A'             
     e( 10 - 10) =     16.48494  eV     1   --> A''            

 **************************************************************************

 **************************************************************************

                    xk=(   0.00000,   0.83333,   0.66667  )

     Band symmetry, C_s (m)     point group:

     e(  1 -  1) =     -3.39270  eV     1   --> A'             
     e(  2 -  2) =     -2.43807  eV     1   --> A''            
     e(  3 -  3) =      1.61803  eV     1   --> A'             
     e(  4 -  4) =      2.97402  eV     1   --> A''            
     e(  5 -  5) =      7.59018  eV     1   --> A''            
     e(  6 -  6) =     10.08359  eV     1   --> A'             
     e(  7 -  7) =     12.53903  eV     1   --> A'             
     e(  8 -  8) =     12.65260  eV     1   --> A''            
     e(  9 -  9) =     15.00039  eV     1   --> A'             
     e( 10 - 10) =     16.38813  eV     1   --> A''            

 **************************************************************************

 **************************************************************************

                    xk=(   0.00000,   0.82500,   0.67500  )

     Band symmetry, C_s (m)     point group:

     e(  1 -  1) =     -3.40473  eV     1   --> A'             
     e(  2 -  2) =     -2.42938  eV     1   --> A''            
     e(  3 -  3) =      1.60864  eV     1   --> A'             
     e(  4 -  4) =      3.02585  eV     1   --> A''            
     e(  5 -  5) =      7.49484  eV     1   --> A''            
     e(  6 -  6) =     10.07457  eV     1   --> A'             
     e(  7 -  7) =     12.64658  eV     1   --> A'             
     e(  8 -  8) =     12.74689  eV     1   --> A''            
     e(  9 -  9) =     14.89093  eV     1   --> A'             
     e( 10 - 10) =     16.29415  eV     1   --> A''            

 **************************************************************************

 **************************************************************************

                    xk=(   0.00000,   0.81667,   0.68333  )

     Band symmetry, C_s (m)     point group:

     e(  1 -  1) =     -3.41549  eV     1   --> A'             
     e(  2 -  2) =     -2.42171  eV     1   --> A''            
     e(  3 -  3) =      1.60024  eV     1   --> A'             
     e(  4 -  4) =      3.07473  eV     1   --> A''            
     e(  5 -  5) =      7.40711  eV     1   --> A''            
     e(  6 -  6) =     10.06646  eV     1   --> A'             
     e(  7 -  7) =     12.75332  eV     1   --> A'             
     e(  8 -  8) =     12.83640  eV     1   --> A''            
     e(  9 -  9) =     14.78242  eV     1   --> A'             
     e( 10 - 10) =     16.20420  eV     1   --> A''            

 **************************************************************************

 **************************************************************************

                    xk=(   0.00000,   0.80833,   0.69167  )

     Band symmetry, C_s (m)     point group:

     e(  1 -  1) =     -3.42499  eV     1   --> A'             
     e(  2 -  2) =     -2.41503  eV     1   --> A''            
     e(  3 -  3) =      1.59281  eV     1   --> A'             
     e(  4 -  4) =      3.12001  eV     1   --> A''            
     e(  5 -  5) =      7.32760  eV     1   --> A''            
     e(  6 -  6) =     10.05929  eV     1   --> A'             
     e(  7 -  7) =     12.85866  eV     1   --> A'             
     e(  8 -  8) =     12.92012  eV     1   --> A''            
     e(  9 -  9) =     14.67545  eV     1   --> A'             
     e( 10 - 10) =     16.11958  eV     1   --> A''            

 **************************************************************************

 **************************************************************************

                    xk=(   0.00000,   0.80000,   0.70000  )

     Band symmetry, C_s (m)     point group:

     e(  1 -  1) =     -3.43323  eV     1   --> A'             
     e(  2 -  2) =     -2.40930  eV     1   --> A''            
     e(  3 -  3) =      1.58636  eV     1   --> A'             
     e(  4 -  4) =      3.16104  eV     1   --> A''            
     e(  5 -  5) =      7.25697  eV     1   --> A''            
     e(  6 -  6) =     10.05307  eV     1   --> A'             
     e(  7 -  7) =     12.96174  eV     1   --> A'             
     e(  8 -  8) =     12.99686  eV     1   --> A''            
     e(  9 -  9) =     14.57091  eV     1   --> A'             
     e( 10 - 10) =     16.04166  eV     1   --> A''            

 **************************************************************************

 **************************************************************************

                    xk=(   0.00000,   0.79167,   0.70833  )

     Band symmetry, C_s (m)     point group:

     e(  1 -  1) =     -3.44020  eV     1   --> A'             
     e(  2 -  2) =     -2.40451  eV     1   --> A''            
     e(  3 -  3) =      1.58090  eV     1   --> A'             
     e(  4 -  4) =      3.19716  eV     1   --> A''            
     e(  5 -  5) =      7.19584  eV     1   --> A''            
     e(  6 -  6) =     10.04778  eV     1   --> A'             
     e(  7 -  7) =     13.06126  eV     1   --> A'             
     e(  8 -  8) =     13.06534  eV     1   --> A''            
     e(  9 -  9) =     14.47013  eV     1   --> A'             
     e( 10 - 10) =     15.97193  eV     1   --> A''            

 **************************************************************************

 **************************************************************************

                    xk=(   0.00000,   0.78333,   0.71667  )

     Band symmetry, C_s (m)     point group:

     e(  1 -  1) =     -3.44590  eV     1   --> A'             
     e(  2 -  2) =     -2.40061  eV     1   --> A''            
     e(  3 -  3) =      1.57643  eV     1   --> A'             
     e(  4 -  4) =      3.22773  eV     1   --> A''            
     e(  5 -  5) =      7.14483  eV     1   --> A''            
     e(  6 -  6) =     10.04346  eV     1   --> A'             
     e(  7 -  7) =     13.12415  eV     1   --> A''            
     e(  8 -  8) =     13.15514  eV     1   --> A'             
     e(  9 -  9) =     14.37518  eV     1   --> A'             
     e( 10 - 10) =     15.91193  eV     1   --> A''            

 **************************************************************************

 **************************************************************************

                    xk=(   0.00000,   0.77500,   0.72500  )

     Band symmetry, C_s (m)     point group:

     e(  1 -  1) =     -3.45034  eV     1   --> A'             
     e(  2 -  2) =     -2.39760  eV     1   --> A''            
     e(  3 -  3) =      1.57295  eV     1   --> A'             
     e(  4 -  4) =      3.25218  eV     1   --> A''            
     e(  5 -  5) =      7.10449  eV     1   --> A''            
     e(  6 -  6) =     10.04009  eV     1   --> A'             
     e(  7 -  7) =     13.17184  eV     1   --> A''            
     e(  8 -  8) =     13.24004  eV     1   --> A'             
     e(  9 -  9) =     14.28944  eV     1   --> A'             
     e( 10 - 10) =     15.86320  eV     1   --> A''            

 **************************************************************************

 **************************************************************************

                    xk=(   0.00000,   0.76667,   0.73333  )

     Band symmetry, C_s (m)     point group:

     e(  1 -  1) =     -3.45350  eV     1   --> A'             
     e(  2 -  2) =     -2.39547  eV     1   --> A''            
     e(  3 -  3) =      1.57046  eV     1   --> A'             
     e(  4 -  4) =      3.27003  eV     1   --> A''            
     e(  5 -  5) =      7.07531  eV     1   --> A''            
     e(  6 -  6) =     10.03768  eV     1   --> A'             
     e(  7 -  7) =     13.20708  eV     1   --> A''            
     e(  8 -  8) =     13.31055  eV     1   --> A'             
     e(  9 -  9) =     14.21832  eV     1   --> A'             
     e( 10 - 10) =     15.82717  eV     1   --> A''            

 **************************************************************************

 **************************************************************************

                    xk=(   0.00000,   0.75833,   0.74167  )

     Band symmetry, C_s (m)     point group:

     e(  1 -  1) =     -3.45541  eV     1   --> A'             
     e(  2 -  2) =     -2.39419  eV     1   --> A''            
     e(  3 -  3) =      1.56897  eV     1   --> A'             
     e(  4 -  4) =      3.28090  eV     1   --> A''            
     e(  5 -  5) =      7.05764  eV     1   --> A''            
     e(  6 -  6) =     10.03623  eV     1   --> A'             
     e(  7 -  7) =     13.22873  eV     1   --> A''            
     e(  8 -  8) =     13.35883  eV     1   --> A'             
     e(  9 -  9) =     14.16967  eV     1   --> A'             
     e( 10 - 10) =     15.80502  eV     1   --> A''            

 **************************************************************************

 **************************************************************************

                    xk=(   0.00000,   0.75000,   0.75000  )

     point group C_2v (mm2) 
     there are  4 classes
     the character table:

       E     C2    s_v   s_v' 
A_1    1.00  1.00  1.00  1.00
A_2    1.00  1.00 -1.00 -1.00
B_1    1.00 -1.00  1.00 -1.00
B_2    1.00 -1.00 -1.00  1.00

     the symmetry operations in each class and the name of the first element:

     E        1
                                                                 
     C2       2
                                                                 
     s_v      4
                                                                 
     s_v'     3
                                                                 

     Band symmetry, C_2v (mm2)  point group:

     e(  1 -  1) =     -3.45604  eV     1   --> A_1  D_1  S_1  
     e(  2 -  2) =     -2.39376  eV     1   --> B_1  D_3  S_3  
     e(  3 -  3) =      1.56847  eV     1   --> A_1  D_1  S_1  
     e(  4 -  4) =      3.28455  eV     1   --> A_2  D_2  S_2  
     e(  5 -  5) =      7.05173  eV     1   --> B_1  D_3  S_3  
     e(  6 -  6) =     10.03575  eV     1   --> A_1  D_1  S_1  
     e(  7 -  7) =     13.23603  eV     1   --> B_1  D_3  S_3  
     e(  8 -  8) =     13.37628  eV     1   --> B_2  D_4  S_4  
     e(  9 -  9) =     14.15210  eV     1   --> A_1  D_1  S_1  
     e( 10 - 10) =     15.79755  eV     1   --> A_2  D_2  S_2  

 **************************************************************************

 **************************************************************************

                    xk=(   0.00000,   0.72500,   0.72500  )

     Band symmetry, C_2v (mm2)  point group:

     e(  1 -  1) =     -3.57127  eV     1   --> A_1  D_1  S_1  
     e(  2 -  2) =     -2.26975  eV     1   --> B_1  D_3  S_3  
     e(  3 -  3) =      1.50047  eV     1   --> A_1  D_1  S_1  
     e(  4 -  4) =      3.37272  eV     1   --> A_2  D_2  S_2  
     e(  5 -  5) =      7.13363  eV     1   --> B_1  D_3  S_3  
     e(  6 -  6) =     10.55400  eV     1   --> A_1  D_1  S_1  
     e(  7 -  7) =     12.97609  eV     1   --> B_1  D_3  S_3  
     e(  8 -  8) =     13.08670  eV     1   --> B_2  D_4  S_4  
     e(  9 -  9) =     13.81419  eV     1   --> A_1  D_1  S_1  
     e( 10 - 10) =     15.50830  eV     1   --> A_2  D_2  S_2  

 **************************************************************************

 **************************************************************************

                    xk=(   0.00000,   0.70000,   0.70000  )

     Band symmetry, C_2v (mm2)  point group:

     e(  1 -  1) =     -3.69932  eV     1   --> A_1  D_1  S_1  
     e(  2 -  2) =     -2.13396  eV     1   --> B_1  D_3  S_3  
     e(  3 -  3) =      1.46053  eV     1   --> A_1  D_1  S_1  
     e(  4 -  4) =      3.46779  eV     1   --> A_2  D_2  S_2  
     e(  5 -  5) =      7.22038  eV     1   --> B_1  D_3  S_3  
     e(  6 -  6) =     11.07879  eV     1   --> A_1  D_1  S_1  
     e(  7 -  7) =     12.72630  eV     1   --> B_1  D_3  S_3  
     e(  8 -  8) =     12.80029  eV     1   --> B_2  D_4  S_4  
     e(  9 -  9) =     13.49467  eV     1   --> A_1  D_1  S_1  
     e( 10 - 10) =     15.23218  eV     1   --> A_2  D_2  S_2  

 **************************************************************************

 **************************************************************************

                    xk=(   0.00000,   0.67500,   0.67500  )

     Band symmetry, C_2v (mm2)  point group:

     e(  1 -  1) =     -3.83884  eV     1   --> A_1  D_1  S_1  
     e(  2 -  2) =     -1.98640  eV     1   --> B_1  D_3  S_3  
     e(  3 -  3) =      1.44849  eV     1   --> A_1  D_1  S_1  
     e(  4 -  4) =      3.56933  eV     1   --> A_2  D_2  S_2  
     e(  5 -  5) =      7.31087  eV     1   --> B_1  D_3  S_3  
     e(  6 -  6) =     11.59486  eV     1   --> A_1  D_1  S_1  
     e(  7 -  7) =     12.48835  eV     1   --> B_1  D_3  S_3  
     e(  8 -  8) =     12.51854  eV     1   --> B_2  D_4  S_4  
     e(  9 -  9) =     13.20640  eV     1   --> A_1  D_1  S_1  
     e( 10 - 10) =     14.96998  eV     1   --> A_2  D_2  S_2  

 **************************************************************************

 **************************************************************************

                    xk=(   0.00000,   0.65000,   0.65000  )

     Band symmetry, C_2v (mm2)  point group:

     e(  1 -  1) =     -3.98810  eV     1   --> A_1  D_1  S_1  
     e(  2 -  2) =     -1.82709  eV     1   --> B_1  D_3  S_3  
     e(  3 -  3) =      1.46349  eV     1   --> A_1  D_1  S_1  
     e(  4 -  4) =      3.67680  eV     1   --> A_2  D_2  S_2  
     e(  5 -  5) =      7.40375  eV     1   --> B_1  D_3  S_3  
     e(  6 -  6) =     12.04480  eV     1   --> A_1  D_1  S_1  
     e(  7 -  7) =     12.24263  eV     1   --> B_2  D_4  S_4  
     e(  8 -  8) =     12.26394  eV     1   --> B_1  D_3  S_3  
     e(  9 -  9) =     13.00401  eV     1   --> A_1  D_1  S_1  
     e( 10 - 10) =     14.72248  eV     1   --> A_2  D_2  S_2  

 **************************************************************************

 **************************************************************************

                    xk=(   0.00000,   0.62500,   0.62500  )

     Band symmetry, C_2v (mm2)  point group:

     e(  1 -  1) =     -4.14513  eV     1   --> A_1  D_1  S_1  
     e(  2 -  2) =     -1.65605  eV     1   --> B_1  D_3  S_3  
     e(  3 -  3) =      1.50425  eV     1   --> A_1  D_1  S_1  
     e(  4 -  4) =      3.78963  eV     1   --> A_2  D_2  S_2  
     e(  5 -  5) =      7.49739  eV     1   --> B_1  D_3  S_3  
     e(  6 -  6) =     11.97348  eV     1   --> B_2  D_4  S_4  
     e(  7 -  7) =     12.05485  eV     1   --> B_1  D_3  S_3  
     e(  8 -  8) =     12.21119  eV     1   --> A_1  D_1  S_1  
     e(  9 -  9) =     13.10139  eV     1   --> A_1  D_1  S_1  
     e( 10 - 10) =     14.49044  eV     1   --> A_2  D_2  S_2  

 **************************************************************************

 **************************************************************************

                    xk=(   0.00000,   0.60000,   0.60000  )

     Band symmetry, C_2v (mm2)  point group:

     e(  1 -  1) =     -4.30790  eV     1   --> A_1  D_1  S_1  
     e(  2 -  2) =     -1.47331  eV     1   --> B_1  D_3  S_3  
     e(  3 -  3) =      1.56920  eV     1   --> A_1  D_1  S_1  
     e(  4 -  4) =      3.90716  eV     1   --> A_2  D_2  S_2  
     e(  5 -  5) =      7.58982  eV     1   --> B_1  D_3  S_3  
     e(  6 -  6) =     11.71186  eV     1   --> B_2  D_4  S_4  
     e(  7 -  7) =     11.86295  eV     1   --> B_1  D_3  S_3  
     e(  8 -  8) =     12.05713  eV     1   --> A_1  D_1  S_1  
     e(  9 -  9) =     13.53053  eV     1   --> A_1  D_1  S_1  
     e( 10 - 10) =     14.27465  eV     1   --> A_2  D_2  S_2  

 **************************************************************************

 **************************************************************************

                    xk=(   0.00000,   0.57500,   0.57500  )

     Band symmetry, C_2v (mm2)  point group:

     e(  1 -  1) =     -4.47439  eV     1   --> A_1  D_1  S_1  
     e(  2 -  2) =     -1.27888  eV     1   --> B_1  D_3  S_3  
     e(  3 -  3) =      1.65666  eV     1   --> A_1  D_1  S_1  
     e(  4 -  4) =      4.02865  eV     1   --> A_2  D_2  S_2  
     e(  5 -  5) =      7.67875  eV     1   --> B_1  D_3  S_3  
     e(  6 -  6) =     11.45839  eV     1   --> B_2  D_4  S_4  
     e(  7 -  7) =     11.69024  eV     1   --> B_1  D_3  S_3  
     e(  8 -  8) =     11.81900  eV     1   --> A_1  D_1  S_1  
     e(  9 -  9) =     14.04758  eV     1   --> A_1  D_1  S_1  
     e( 10 - 10) =     14.07596  eV     1   --> A_2  D_2  S_2  

 **************************************************************************

 **************************************************************************

                    xk=(   0.00000,   0.55000,   0.55000  )

     Band symmetry, C_2v (mm2)  point group:

     e(  1 -  1) =     -4.64272  eV     1   --> A_1  D_1  S_1  
     e(  2 -  2) =     -1.07282  eV     1   --> B_1  D_3  S_3  
     e(  3 -  3) =      1.76495  eV     1   --> A_1  D_1  S_1  
     e(  4 -  4) =      4.15331  eV     1   --> A_2  D_2  S_2  
     e(  5 -  5) =      7.76154  eV     1   --> B_1  D_3  S_3  
     e(  6 -  6) =     11.21358  eV     1   --> B_2  D_4  S_4  
     e(  7 -  7) =     11.53881  eV     1   --> B_1  D_3  S_3  
     e(  8 -  8) =     11.56753  eV     1   --> A_1  D_1  S_1  
     e(  9 -  9) =     13.89521  eV     1   --> A_2  D_2  S_2  
     e( 10 - 10) =     14.56993  eV     1   --> A_1  D_1  S_1  

 **************************************************************************

 **************************************************************************

                    xk=(   0.00000,   0.52500,   0.52500  )

     Band symmetry, C_2v (mm2)  point group:

     e(  1 -  1) =     -4.81116  eV     1   --> A_1  D_1  S_1  
     e(  2 -  2) =     -0.85515  eV     1   --> B_1  D_3  S_3  
     e(  3 -  3) =      1.89244  eV     1   --> A_1  D_1  S_1  
     e(  4 -  4) =      4.28023  eV     1   --> A_2  D_2  S_2  
     e(  5 -  5) =      7.83531  eV     1   --> B_1  D_3  S_3  
     e(  6 -  6) =     10.97785  eV     1   --> B_2  D_4  S_4  
     e(  7 -  7) =     11.31828  eV     1   --> A_1  D_1  S_1  
     e(  8 -  8) =     11.41065  eV     1   --> B_1  D_3  S_3  
     e(  9 -  9) =     13.73332  eV     1   --> A_2  D_2  S_2  
     e( 10 - 10) =     15.06244  eV     1   --> A_1  D_1  S_1  

 **************************************************************************

 **************************************************************************

                    xk=(   0.00000,   0.50000,   0.50000  )

     Band symmetry, C_2v (mm2)  point group:

     e(  1 -  1) =     -4.97817  eV     1   --> A_1  D_1  S_1  
     e(  2 -  2) =     -0.62594  eV     1   --> B_1  D_3  S_3  
     e(  3 -  3) =      2.03759  eV     1   --> A_1  D_1  S_1  
     e(  4 -  4) =      4.40847  eV     1   --> A_2  D_2  S_2  
     e(  5 -  5) =      7.89714  eV     1   --> B_1  D_3  S_3  
     e(  6 -  6) =     10.75157  eV     1   --> B_2  D_4  S_4  
     e(  7 -  7) =     11.07613  eV     1   --> A_1  D_1  S_1  
     e(  8 -  8) =     11.30742  eV     1   --> B_1  D_3  S_3  
     e(  9 -  9) =     13.59124  eV     1   --> A_2  D_2  S_2  
     e( 10 - 10) =     15.48942  eV     1   --> A_1  D_1  S_1  

 **************************************************************************

 **************************************************************************

                    xk=(   0.00000,   0.47500,   0.47500  )

     Band symmetry, C_2v (mm2)  point group:

     e(  1 -  1) =     -5.14240  eV     1   --> A_1  D_1  S_1  
     e(  2 -  2) =     -0.38524  eV     1   --> B_1  D_3  S_3  
     e(  3 -  3) =      2.19896  eV     1   --> A_1  D_1  S_1  
     e(  4 -  4) =      4.53698  eV     1   --> A_2  D_2  S_2  
     e(  5 -  5) =      7.94437  eV     1   --> B_1  D_3  S_3  
     e(  6 -  6) =     10.53503  eV     1   --> B_2  D_4  S_4  
     e(  7 -  7) =     10.84305  eV     1   --> A_1  D_1  S_1  
     e(  8 -  8) =     11.22997  eV     1   --> B_1  D_3  S_3  
     e(  9 -  9) =     13.46997  eV     1   --> A_2  D_2  S_2  
     e( 10 - 10) =     15.80849  eV     1   --> A_1  D_1  S_1  

 **************************************************************************

 **************************************************************************

                    xk=(   0.00000,   0.45000,   0.45000  )

     Band symmetry, C_2v (mm2)  point group:

     e(  1 -  1) =     -5.30269  eV     1   --> A_1  D_1  S_1  
     e(  2 -  2) =     -0.13314  eV     1   --> B_1  D_3  S_3  
     e(  3 -  3) =      2.37519  eV     1   --> A_1  D_1  S_1  
     e(  4 -  4) =      4.66467  eV     1   --> A_2  D_2  S_2  
     e(  5 -  5) =      7.97498  eV     1   --> B_1  D_3  S_3  
     e(  6 -  6) =     10.32851  eV     1   --> B_2  D_4  S_4  
     e(  7 -  7) =     10.62000  eV     1   --> A_1  D_1  S_1  
     e(  8 -  8) =     11.17779  eV     1   --> B_1  D_3  S_3  
     e(  9 -  9) =     13.37050  eV     1   --> A_2  D_2  S_2  
     e( 10 - 10) =     15.98688  eV     1   --> A_1  D_1  S_1  

 **************************************************************************

 **************************************************************************

                    xk=(   0.00000,   0.42500,   0.42500  )

     Band symmetry, C_2v (mm2)  point group:

     e(  1 -  1) =     -5.45802  eV     1   --> A_1  D_1  S_1  
     e(  2 -  2) =      0.13028  eV     1   --> B_1  D_3  S_3  
     e(  3 -  3) =      2.56496  eV     1   --> A_1  D_1  S_1  
     e(  4 -  4) =      4.79042  eV     1   --> A_2  D_2  S_2  
     e(  5 -  5) =      7.98794  eV     1   --> B_1  D_3  S_3  
     e(  6 -  6) =     10.13222  eV     1   --> B_2  D_4  S_4  
     e(  7 -  7) =     10.40747  eV     1   --> A_1  D_1  S_1  
     e(  8 -  8) =     11.14832  eV     1   --> B_1  D_3  S_3  
     e(  9 -  9) =     13.29387  eV     1   --> A_2  D_2  S_2  
     e( 10 - 10) =     16.02596  eV     1   --> A_1  D_1  S_1  

 **************************************************************************

 **************************************************************************

                    xk=(   0.00000,   0.40000,   0.40000  )

     Band symmetry, C_2v (mm2)  point group:

     e(  1 -  1) =     -5.60754  eV     1   --> A_1  D_1  S_1  
     e(  2 -  2) =      0.40491  eV     1   --> B_1  D_3  S_3  
     e(  3 -  3) =      2.76702  eV     1   --> A_1  D_1  S_1  
     e(  4 -  4) =      4.91307  eV     1   --> A_2  D_2  S_2  
     e(  5 -  5) =      7.98339  eV     1   --> B_1  D_3  S_3  
     e(  6 -  6) =      9.94637  eV     1   --> B_2  D_4  S_4  
     e(  7 -  7) =     10.20573  eV     1   --> A_1  D_1  S_1  
     e(  8 -  8) =     11.13640  eV     1   --> B_1  D_3  S_3  
     e(  9 -  9) =     13.24108  eV     1   --> A_2  D_2  S_2  
     e( 10 - 10) =     15.95662  eV     1   --> A_1  D_1  S_1  

 **************************************************************************

 **************************************************************************

                    xk=(   0.00000,   0.37500,   0.37500  )

     Band symmetry, C_2v (mm2)  point group:

     e(  1 -  1) =     -5.75052  eV     1   --> A_1  D_1  S_1  
     e(  2 -  2) =      0.69061  eV     1   --> B_1  D_3  S_3  
     e(  3 -  3) =      2.98009  eV     1   --> A_1  D_1  S_1  
     e(  4 -  4) =      5.03149  eV     1   --> A_2  D_2  S_2  
     e(  5 -  5) =      7.96258  eV     1   --> B_1  D_3  S_3  
     e(  6 -  6) =      9.77111  eV     1   --> B_2  D_4  S_4  
     e(  7 -  7) =     10.01493  eV     1   --> A_1  D_1  S_1  
     e(  8 -  8) =     11.13373  eV     1   --> B_1  D_3  S_3  
     e(  9 -  9) =     13.21306  eV     1   --> A_2  D_2  S_2  
     e( 10 - 10) =     15.81306  eV     1   --> A_1  D_1  S_1  

 **************************************************************************

 **************************************************************************

                    xk=(   0.00000,   0.35000,   0.35000  )

     Band symmetry, C_2v (mm2)  point group:

     e(  1 -  1) =     -5.88634  eV     1   --> A_1  D_1  S_1  
     e(  2 -  2) =      0.98724  eV     1   --> B_1  D_3  S_3  
     e(  3 -  3) =      3.20285  eV     1   --> A_1  D_1  S_1  
     e(  4 -  4) =      5.14461  eV     1   --> A_2  D_2  S_2  
     e(  5 -  5) =      7.92758  eV     1   --> B_1  D_3  S_3  
     e(  6 -  6) =      9.60661  eV     1   --> B_2  D_4  S_4  
     e(  7 -  7) =      9.83511  eV     1   --> A_1  D_1  S_1  
     e(  8 -  8) =     11.12858  eV     1   --> B_1  D_3  S_3  
     e(  9 -  9) =     13.21066  eV     1   --> A_2  D_2  S_2  
     e( 10 - 10) =     15.61941  eV     1   --> A_1  D_1  S_1  

[...]
     e(  6 -  6) =     11.01474  eV     1   --> A'             
     e(  7 -  7) =     11.34518  eV     1   --> A''            
     e(  8 -  8) =     11.62181  eV     1   --> A'             
     e(  9 -  9) =     14.86665  eV     1   --> A'             
     e( 10 - 10) =     16.33688  eV     1   --> A''            

 **************************************************************************

 **************************************************************************

                    xk=(   0.00000,   0.82500,   0.52500  )

     Band symmetry, C_s (m)     point group:

     e(  1 -  1) =     -3.63891  eV     1   --> A'             
     e(  2 -  2) =     -2.14776  eV     1   --> A''            
     e(  3 -  3) =      1.60696  eV     1   --> A'             
     e(  4 -  4) =      2.79724  eV     1   --> A''            
     e(  5 -  5) =      8.81904  eV     1   --> A''            
     e(  6 -  6) =     10.72148  eV     1   --> A'             
     e(  7 -  7) =     11.05065  eV     1   --> A''            
     e(  8 -  8) =     11.81472  eV     1   --> A'             
     e(  9 -  9) =     14.99724  eV     1   --> A'             
     e( 10 - 10) =     16.48000  eV     1   --> A''            

 **************************************************************************

 **************************************************************************

                    xk=(   0.00000,   0.83333,   0.50000  )

     Band symmetry, C_s (m)     point group:

     e(  1 -  1) =     -3.64162  eV     1   --> A'             
     e(  2 -  2) =     -2.13948  eV     1   --> A''            
     e(  3 -  3) =      1.64518  eV     1   --> A'             
     e(  4 -  4) =      2.72152  eV     1   --> A''            
     e(  5 -  5) =      9.12882  eV     1   --> A''            
     e(  6 -  6) =     10.42060  eV     1   --> A'             
     e(  7 -  7) =     10.76215  eV     1   --> A''            
     e(  8 -  8) =     12.02344  eV     1   --> A'             
     e(  9 -  9) =     15.12788  eV     1   --> A'             
     e( 10 - 10) =     16.62174  eV     1   --> A''            

 **************************************************************************

 **************************************************************************

                    xk=(   0.00000,   0.84167,   0.47500  )

     Band symmetry, C_s (m)     point group:

     e(  1 -  1) =     -3.64079  eV     1   --> A'             
     e(  2 -  2) =     -2.13657  eV     1   --> A''            
     e(  3 -  3) =      1.68966  eV     1   --> A'             
     e(  4 -  4) =      2.65307  eV     1   --> A''            
     e(  5 -  5) =      9.43703  eV     1   --> A''            
     e(  6 -  6) =     10.12173  eV     1   --> A'             
     e(  7 -  7) =     10.49103  eV     1   --> A''            
     e(  8 -  8) =     12.23862  eV     1   --> A'             
     e(  9 -  9) =     15.25830  eV     1   --> A'             
     e( 10 - 10) =     16.75876  eV     1   --> A''            

 **************************************************************************

 **************************************************************************

                    xk=(   0.00000,   0.85000,   0.45000  )

     Band symmetry, C_s (m)     point group:

     e(  1 -  1) =     -3.63640  eV     1   --> A'             
     e(  2 -  2) =     -2.13941  eV     1   --> A''            
     e(  3 -  3) =      1.74013  eV     1   --> A'             
     e(  4 -  4) =      2.59352  eV     1   --> A''            
     e(  5 -  5) =      9.69289  eV     1   --> A''            
     e(  6 -  6) =      9.82756  eV     1   --> A'             
     e(  7 -  7) =     10.28768  eV     1   --> A''            
     e(  8 -  8) =     12.45770  eV     1   --> A'             
     e(  9 -  9) =     15.38839  eV     1   --> A'             
     e( 10 - 10) =     16.88791  eV     1   --> A''            

 **************************************************************************

 **************************************************************************

                    xk=(   0.00000,   0.85833,   0.42500  )

     Band symmetry, C_s (m)     point group:

     e(  1 -  1) =     -3.62847  eV     1   --> A'             
     e(  2 -  2) =     -2.14828  eV     1   --> A''            
     e(  3 -  3) =      1.79629  eV     1   --> A'             
     e(  4 -  4) =      2.54408  eV     1   --> A''            
     e(  5 -  5) =      9.53945  eV     1   --> A'             
     e(  6 -  6) =      9.69787  eV     1   --> A''            
     e(  7 -  7) =     10.35029  eV     1   --> A''            
     e(  8 -  8) =     12.67937  eV     1   --> A'             
     e(  9 -  9) =     15.51821  eV     1   --> A'             
     e( 10 - 10) =     17.00625  eV     1   --> A''            

 **************************************************************************

 **************************************************************************

                    xk=(   0.00000,   0.86667,   0.40000  )

     Band symmetry, C_s (m)     point group:

     e(  1 -  1) =     -3.61698  eV     1   --> A'             
     e(  2 -  2) =     -2.16337  eV     1   --> A''            
     e(  3 -  3) =      1.85778  eV     1   --> A'             
     e(  4 -  4) =      2.50557  eV     1   --> A''            
     e(  5 -  5) =      9.25835  eV     1   --> A'             
     e(  6 -  6) =      9.48573  eV     1   --> A''            
     e(  7 -  7) =     10.64471  eV     1   --> A''            
     e(  8 -  8) =     12.90260  eV     1   --> A'             
     e(  9 -  9) =     15.64802  eV     1   --> A'             
     e( 10 - 10) =     17.11107  eV     1   --> A''            

 **************************************************************************

 **************************************************************************

                    xk=(  -0.00000,   0.87500,   0.37500  )

     Band symmetry, C_s (m)     point group:

     e(  1 -  1) =     -3.60194  eV     1   --> A'             
     e(  2 -  2) =     -2.18474  eV     1   --> A''            
     e(  3 -  3) =      1.92416  eV     1   --> A'             
     e(  4 -  4) =      2.47847  eV     1   --> A''            
     e(  5 -  5) =      8.98508  eV     1   --> A'             
     e(  6 -  6) =      9.23149  eV     1   --> A''            
     e(  7 -  7) =     10.99557  eV     1   --> A''            
     e(  8 -  8) =     13.12641  eV     1   --> A'             
     e(  9 -  9) =     15.77822  eV     1   --> A'             
     e( 10 - 10) =     17.19995  eV     1   --> A''            

 **************************************************************************

 **************************************************************************

                    xk=(  -0.00000,   0.88333,   0.35000  )

     Band symmetry, C_s (m)     point group:

     e(  1 -  1) =     -3.58337  eV     1   --> A'             
     e(  2 -  2) =     -2.21231  eV     1   --> A''            
     e(  3 -  3) =      1.99493  eV     1   --> A'             
     e(  4 -  4) =      2.46290  eV     1   --> A''            
     e(  5 -  5) =      8.72046  eV     1   --> A'             
     e(  6 -  6) =      8.97229  eV     1   --> A''            
     e(  7 -  7) =     11.36535  eV     1   --> A''            
     e(  8 -  8) =     13.34975  eV     1   --> A'             
     e(  9 -  9) =     15.90941  eV     1   --> A'             
     e( 10 - 10) =     17.27094  eV     1   --> A''            

 **************************************************************************

 **************************************************************************

                    xk=(  -0.00000,   0.89167,   0.32500  )

     Band symmetry, C_s (m)     point group:

     e(  1 -  1) =     -3.56127  eV     1   --> A'             
     e(  2 -  2) =     -2.24586  eV     1   --> A''            
     e(  3 -  3) =      2.06948  eV     1   --> A'             
     e(  4 -  4) =      2.45868  eV     1   --> A''            
     e(  5 -  5) =      8.46535  eV     1   --> A'             
     e(  6 -  6) =      8.71665  eV     1   --> A''            
     e(  7 -  7) =     11.74506  eV     1   --> A''            
     e(  8 -  8) =     13.57144  eV     1   --> A'             
     e(  9 -  9) =     16.04233  eV     1   --> A'             
     e( 10 - 10) =     17.32275  eV     1   --> A''            

 **************************************************************************

 **************************************************************************

                    xk=(   0.00000,   0.90000,   0.30000  )

     Band symmetry, C_s (m)     point group:

     e(  1 -  1) =     -3.53568  eV     1   --> A'             
     e(  2 -  2) =     -2.28505  eV     1   --> A''            
     e(  3 -  3) =      2.14711  eV     1   --> A'             
     e(  4 -  4) =      2.46530  eV     1   --> A''            
     e(  5 -  5) =      8.22066  eV     1   --> A'             
     e(  6 -  6) =      8.46787  eV     1   --> A''            
     e(  7 -  7) =     12.13087  eV     1   --> A''            
     e(  8 -  8) =     13.79016  eV     1   --> A'             
     e(  9 -  9) =     16.17784  eV     1   --> A'             
     e( 10 - 10) =     17.35507  eV     1   --> A''            

 **************************************************************************

 **************************************************************************

                    xk=(   0.00000,   0.90833,   0.27500  )

     Band symmetry, C_s (m)     point group:

     e(  1 -  1) =     -3.50662  eV     1   --> A'             
     e(  2 -  2) =     -2.32940  eV     1   --> A''            
     e(  3 -  3) =      2.22697  eV     1   --> A'             
     e(  4 -  4) =      2.48196  eV     1   --> A''            
     e(  5 -  5) =      7.98743  eV     1   --> A'             
     e(  6 -  6) =      8.22789  eV     1   --> A''            
     e(  7 -  7) =     12.52012  eV     1   --> A''            
     e(  8 -  8) =     14.00442  eV     1   --> A'             
     e(  9 -  9) =     16.31689  eV     1   --> A'             
     e( 10 - 10) =     17.36884  eV     1   --> A''            

 **************************************************************************

 **************************************************************************

                    xk=(   0.00000,   0.91667,   0.25000  )

     Band symmetry, C_s (m)     point group:

     e(  1 -  1) =     -3.47416  eV     1   --> A'             
     e(  2 -  2) =     -2.37837  eV     1   --> A''            
     e(  3 -  3) =      2.30804  eV     1   --> A'             
     e(  4 -  4) =      2.50759  eV     1   --> A''            
     e(  5 -  5) =      7.76685  eV     1   --> A'             
     e(  6 -  6) =      7.99821  eV     1   --> A''            
     e(  7 -  7) =     12.91031  eV     1   --> A''            
     e(  8 -  8) =     14.21260  eV     1   --> A'             
     e(  9 -  9) =     16.46041  eV     1   --> A'             
     e( 10 - 10) =     17.36647  eV     1   --> A''            

 **************************************************************************

 **************************************************************************

                    xk=(   0.00000,   0.92500,   0.22500  )

     Band symmetry, C_s (m)     point group:

     e(  1 -  1) =     -3.43834  eV     1   --> A'             
     e(  2 -  2) =     -2.43136  eV     1   --> A''            
     e(  3 -  3) =      2.38916  eV     1   --> A'             
     e(  4 -  4) =      2.54084  eV     1   --> A''            
     e(  5 -  5) =      7.56025  eV     1   --> A'             
     e(  6 -  6) =      7.78021  eV     1   --> A''            
     e(  7 -  7) =     13.29854  eV     1   --> A''            
     e(  8 -  8) =     14.41296  eV     1   --> A'             
     e(  9 -  9) =     16.60916  eV     1   --> A'             
     e( 10 - 10) =     17.35176  eV     1   --> A''            

 **************************************************************************

 **************************************************************************

                    xk=(   0.00000,   0.93333,   0.20000  )

     Band symmetry, C_s (m)     point group:

     e(  1 -  1) =     -3.39925  eV     1   --> A'             
     e(  2 -  2) =     -2.48770  eV     1   --> A''            
     e(  3 -  3) =      2.46894  eV     1   --> A'             
     e(  4 -  4) =      2.58010  eV     1   --> A''            
     e(  5 -  5) =      7.36918  eV     1   --> A'             
     e(  6 -  6) =      7.57536  eV     1   --> A''            
     e(  7 -  7) =     13.68107  eV     1   --> A''            
     e(  8 -  8) =     14.60369  eV     1   --> A'             
     e(  9 -  9) =     16.76356  eV     1   --> A'             
     e( 10 - 10) =     17.32977  eV     1   --> A''            

 **************************************************************************

 **************************************************************************

                    xk=(   0.00000,   0.94167,   0.17500  )

     Band symmetry, C_s (m)     point group:

     e(  1 -  1) =     -3.35698  eV     1   --> A'             
     e(  2 -  2) =     -2.54675  eV     1   --> A''            
     e(  3 -  3) =      2.54580  eV     1   --> A'             
     e(  4 -  4) =      2.62353  eV     1   --> A''            
     e(  5 -  5) =      7.19539  eV     1   --> A'             
     e(  6 -  6) =      7.38525  eV     1   --> A''            
     e(  7 -  7) =     14.05280  eV     1   --> A''            
     e(  8 -  8) =     14.78296  eV     1   --> A'             
     e(  9 -  9) =     16.92333  eV     1   --> A'             
     e( 10 - 10) =     17.30667  eV     1   --> A''            

 **************************************************************************

 **************************************************************************

                    xk=(  -0.00000,   0.95000,   0.15000  )

     Band symmetry, C_s (m)     point group:

     e(  1 -  1) =     -3.31164  eV     1   --> A'             
     e(  2 -  2) =     -2.60784  eV     1   --> A''            
     e(  3 -  3) =      2.61796  eV     1   --> A'             
     e(  4 -  4) =      2.66901  eV     1   --> A''            
     e(  5 -  5) =      7.04082  eV     1   --> A'             
     e(  6 -  6) =      7.21162  eV     1   --> A''            
     e(  7 -  7) =     14.40656  eV     1   --> A''            
     e(  8 -  8) =     14.94895  eV     1   --> A'             
     e(  9 -  9) =     17.08707  eV     1   --> A'             
     e( 10 - 10) =     17.28988  eV     1   --> A''            

 **************************************************************************

 **************************************************************************

                    xk=(   0.00000,   0.95833,   0.12500  )

     Band symmetry, C_s (m)     point group:

     e(  1 -  1) =     -3.26336  eV     1   --> A'             
     e(  2 -  2) =     -2.67033  eV     1   --> A''            
     e(  3 -  3) =      2.68346  eV     1   --> A'             
     e(  4 -  4) =      2.71421  eV     1   --> A''            
     e(  5 -  5) =      6.90760  eV     1   --> A'             
     e(  6 -  6) =      7.05642  eV     1   --> A''            
     e(  7 -  7) =     14.73226  eV     1   --> A''            
     e(  8 -  8) =     15.09982  eV     1   --> A'             
     e(  9 -  9) =     17.25155  eV     1   --> A'             
     e( 10 - 10) =     17.28834  eV     1   --> A''            

 **************************************************************************

 **************************************************************************

                    xk=(   0.00000,   0.96667,   0.10000  )

     Band symmetry, C_s (m)     point group:

     e(  1 -  1) =     -3.21231  eV     1   --> A'             
     e(  2 -  2) =     -2.73365  eV     1   --> A''            
     e(  3 -  3) =      2.74030  eV     1   --> A'             
     e(  4 -  4) =      2.75664  eV     1   --> A''            
     e(  5 -  5) =      6.79792  eV     1   --> A'             
     e(  6 -  6) =      6.92178  eV     1   --> A''            
     e(  7 -  7) =     15.01659  eV     1   --> A''            
     e(  8 -  8) =     15.23349  eV     1   --> A'             
     e(  9 -  9) =     17.31221  eV     1   --> A''            
     e( 10 - 10) =     17.41048  eV     1   --> A'             

 **************************************************************************

 **************************************************************************

                    xk=(   0.00000,   0.97500,   0.07500  )

     Band symmetry, C_s (m)     point group:

     e(  1 -  1) =     -3.15868  eV     1   --> A'             
     e(  2 -  2) =     -2.79721  eV     1   --> A''            
     e(  3 -  3) =      2.78655  eV     1   --> A'             
     e(  4 -  4) =      2.79366  eV     1   --> A''            
     e(  5 -  5) =      6.71389  eV     1   --> A'             
     e(  6 -  6) =      6.80991  eV     1   --> A''            
     e(  7 -  7) =     15.24457  eV     1   --> A''            
     e(  8 -  8) =     15.34734  eV     1   --> A'             
     e(  9 -  9) =     17.37026  eV     1   --> A''            
     e( 10 - 10) =     17.55248  eV     1   --> A'             

 **************************************************************************

 **************************************************************************

                    xk=(   0.00000,   0.98333,   0.05000  )

     Band symmetry, C_s (m)     point group:

     e(  1 -  1) =     -3.10267  eV     1   --> A'             
     e(  2 -  2) =     -2.86053  eV     1   --> A''            
     e(  3 -  3) =      2.82057  eV     1   --> A'             
     e(  4 -  4) =      2.82272  eV     1   --> A''            
     e(  5 -  5) =      6.65739  eV     1   --> A'             
     e(  6 -  6) =      6.72303  eV     1   --> A''            
     e(  7 -  7) =     15.40450  eV     1   --> A''            
     e(  8 -  8) =     15.43756  eV     1   --> A'             
     e(  9 -  9) =     17.46310  eV     1   --> A''            
     e( 10 - 10) =     17.65831  eV     1   --> A'             

 **************************************************************************

 **************************************************************************

                    xk=(   0.00000,   0.99167,   0.02500  )

     Band symmetry, C_s (m)     point group:

     e(  1 -  1) =     -3.04455  eV     1   --> A'             
     e(  2 -  2) =     -2.92312  eV     1   --> A''            
     e(  3 -  3) =      2.84120  eV     1   --> A'             
     e(  4 -  4) =      2.84148  eV     1   --> A''            
     e(  5 -  5) =      6.62978  eV     1   --> A'             
     e(  6 -  6) =      6.66311  eV     1   --> A''            
     e(  7 -  7) =     15.49404  eV     1   --> A''            
     e(  8 -  8) =     15.49837  eV     1   --> A'             
     e(  9 -  9) =     17.57434  eV     1   --> A''            
     e( 10 - 10) =     17.70202  eV     1   --> A'             

 **************************************************************************

 **************************************************************************

                    xk=(   0.00000,   1.00000,   0.00000  )

     zone border point and non-symmorphic group 
     symmetry decomposition not available

 **************************************************************************

     BANDS        :     22.02s CPU     24.57s WALL


   This run was terminated on:  19:46:21  21Jan2020            

=------------------------------------------------------------------------------=
   JOB DONE.
=------------------------------------------------------------------------------=
