     Message from routine get_command_line:
     unexpected argument # 2     :-input

     Program PWSCF v.6.4.1 starts on 18Feb2020 at 18:24:37 

     This program is part of the open-source Quantum ESPRESSO suite
     for quantum simulation of materials; please cite
         "P. Giannozzi et al., J. Phys.:Condens. Matter 21 395502 (2009);
         "P. Giannozzi et al., J. Phys.:Condens. Matter 29 465901 (2017);
          URL http://www.quantum-espresso.org", 
     in publications or presentations arising from this work. More details at
     http://www.quantum-espresso.org/quote

     Parallel version (MPI), running on     1 processors

     MPI processes distributed on     1 nodes
     Waiting for input...
     Reading input from standard input

     Current dimensions of program PWSCF are:
     Max number of different atomic species (ntypx) = 10
     Max number of k-points (npk) =  40000
     Max angular momentum in pseudopotentials (lmaxx) =  3
     Message from routine volume:
     axis vectors are left-handed

     IMPORTANT: XC functional enforced from input :
     Exchange-correlation      = PBE ( 1  4  3  4 0 0)
     Any further DFT definition will be discarded
     Please, verify this is what you really want

               file Na.pbe-spn-kjpaw_psl.1.0.0.UPF: wavefunction(s)  2P renormalized
               file Cl.pbe-n-kjpaw_psl.1.0.0.UPF: wavefunction(s)  3S 3P renormalized

     Subspace diagonalization in iterative solution of the eigenvalue problem:
     a serial algorithm will be used

     Message from routine setup:
     DEPRECATED: symmetry with ibrav=0, use correct ibrav instead

     G-vector sticks info
     --------------------
     sticks:   dense  smooth     PW     G-vecs:    dense   smooth      PW
     Sum         703     559    187                12339     8801    1591



     bravais-lattice index     =            0
     lattice parameter (alat)  =      10.6591  a.u.
     unit-cell volume          =     302.7633 (a.u.)^3
     number of atoms/cell      =            2
     number of atomic types    =            2
     number of electrons       =        16.00
     number of Kohn-Sham states=           12
     kinetic-energy cutoff     =      36.0000  Ry
     charge density cutoff     =     180.0000  Ry
     convergence threshold     =      1.0E-08
     mixing beta               =       0.7000
     number of iterations used =            8  plain     mixing
     Exchange-correlation      = PBE ( 1  4  3  4 0 0)

     celldm(1)=  10.659114  celldm(2)=   0.000000  celldm(3)=   0.000000
     celldm(4)=   0.000000  celldm(5)=   0.000000  celldm(6)=   0.000000

     crystal axes: (cart. coord. in units of alat)
               a(1) = (   0.500000   0.500000   0.000000 )  
               a(2) = (   0.500000   0.000000   0.500000 )  
               a(3) = (   0.000000   0.500000   0.500000 )  

     reciprocal axes: (cart. coord. in units 2 pi/alat)
               b(1) = (  1.000000  1.000000 -1.000000 )  
               b(2) = (  1.000000 -1.000000  1.000000 )  
               b(3) = ( -1.000000  1.000000  1.000000 )  


     PseudoPot. # 1 for Na read from file:
     ./Na.pbe-spn-kjpaw_psl.1.0.0.UPF
     MD5 check sum: 05b4deb74e3932c23ab016979dc8b5d4
     Pseudo is Projector augmented-wave + core cor, Zval =  9.0
     Generated using "atomic" code by A. Dal Corso v.6.3
     Shape of augmentation charge: PSQ
     Using radial grid of 1121 points,  4 beta functions with: 
                l(1) =   0
                l(2) =   0
                l(3) =   1
                l(4) =   1
     Q(r) pseudized with 0 coefficients 


     PseudoPot. # 2 for Cl read from file:
     ./Cl.pbe-n-kjpaw_psl.1.0.0.UPF
     MD5 check sum: 530da96d25dcb7781b0586ca00827062
     Pseudo is Projector augmented-wave + core cor, Zval =  7.0
     Generated using "atomic" code by A. Dal Corso v.6.3
     Shape of augmentation charge: PSQ
     Using radial grid of 1157 points,  6 beta functions with: 
                l(1) =   0
                l(2) =   0
                l(3) =   1
                l(4) =   1
                l(5) =   2
                l(6) =   2
     Q(r) pseudized with 0 coefficients 


     atomic species   valence    mass     pseudopotential
        Na             9.00    22.98900     Na( 1.00)
        Cl             7.00    35.45150     Cl( 1.00)

     48 Sym. Ops., with inversion, found



   Cartesian axes

     site n.     atom                  positions (alat units)
         1           Cl  tau(   1) = (   0.5000000   0.5000000   0.5000000  )
         2           Na  tau(   2) = (   0.0000000   0.0000000   0.0000000  )

     number of k points=    35  Marzari-Vanderbilt smearing, width (Ry)=  0.0050
                       cart. coord. in units 2pi/alat
        k(    1) = (   0.0000000   0.0000000   0.0000000), wk =   0.0027435
        k(    2) = (  -0.1111111   0.1111111   0.1111111), wk =   0.0219479
        k(    3) = (  -0.2222222   0.2222222   0.2222222), wk =   0.0219479
        k(    4) = (  -0.3333333   0.3333333   0.3333333), wk =   0.0219479
        k(    5) = (  -0.4444444   0.4444444   0.4444444), wk =   0.0219479
        k(    6) = (   0.0000000   0.0000000   0.2222222), wk =   0.0164609
        k(    7) = (  -0.1111111   0.1111111   0.3333333), wk =   0.0658436
        k(    8) = (  -0.2222222   0.2222222   0.4444444), wk =   0.0658436
        k(    9) = (  -0.3333333   0.3333333   0.5555556), wk =   0.0658436
        k(   10) = (   0.5555556  -0.5555556  -0.3333333), wk =   0.0658436
        k(   11) = (   0.4444444  -0.4444444  -0.2222222), wk =   0.0658436
        k(   12) = (   0.3333333  -0.3333333  -0.1111111), wk =   0.0658436
        k(   13) = (   0.2222222  -0.2222222  -0.0000000), wk =   0.0329218
        k(   14) = (   0.0000000   0.0000000   0.4444444), wk =   0.0164609
        k(   15) = (  -0.1111111   0.1111111   0.5555556), wk =   0.0658436
        k(   16) = (  -0.2222222   0.2222222   0.6666667), wk =   0.0658436
        k(   17) = (   0.6666667  -0.6666667  -0.2222222), wk =   0.0658436
        k(   18) = (   0.5555556  -0.5555556  -0.1111111), wk =   0.0658436
        k(   19) = (   0.4444444  -0.4444444   0.0000000), wk =   0.0329218
        k(   20) = (   0.0000000   0.0000000   0.6666667), wk =   0.0164609
        k(   21) = (  -0.1111111   0.1111111   0.7777778), wk =   0.0658436
        k(   22) = (   0.7777778  -0.7777778  -0.1111111), wk =   0.0658436
        k(   23) = (   0.6666667  -0.6666667  -0.0000000), wk =   0.0329218
        k(   24) = (   0.0000000   0.0000000   0.8888889), wk =   0.0164609
        k(   25) = (   0.8888889  -0.8888889   0.0000000), wk =   0.0329218
        k(   26) = (   0.0000000   0.2222222   0.4444444), wk =   0.0658436
        k(   27) = (  -0.1111111   0.3333333   0.5555556), wk =   0.1316872
        k(   28) = (   0.7777778  -0.5555556  -0.3333333), wk =   0.1316872
        k(   29) = (   0.0000000   0.2222222   0.6666667), wk =   0.0658436
        k(   30) = (   0.8888889  -0.6666667  -0.2222222), wk =   0.1316872
        k(   31) = (   0.7777778  -0.5555556  -0.1111111), wk =   0.1316872
        k(   32) = (   0.6666667  -0.4444444   0.0000000), wk =   0.0658436
        k(   33) = (   1.0000000  -0.7777778  -0.1111111), wk =   0.0658436
        k(   34) = (   0.8888889  -0.6666667  -0.0000000), wk =   0.0658436
        k(   35) = (   1.0000000  -0.5555556  -0.1111111), wk =   0.0658436

     Dense  grid:    12339 G-vectors     FFT dimensions: (  36,  36,  36)

     Smooth grid:     8801 G-vectors     FFT dimensions: (  30,  30,  30)

     Estimated max dynamical RAM per process >      57.90 MB

     Check: negative core charge=   -0.000019

     Initial potential from superposition of free atoms

     starting charge   15.99370, renormalised to   16.00000
     Starting wfcs are    9 randomized atomic wfcs +    3 random wfcs
     Checking if some PAW data can be deallocated... 

     total cpu time spent up to now is        8.3 secs

     Self-consistent Calculation

     iteration #  1     ecut=    36.00 Ry     beta= 0.70
     Davidson diagonalization with overlap
     ethr =  1.00E-02,  avg # of iterations =  5.9

     Threshold (ethr) on eigenvalues was too large:
     Diagonalizing with lowered threshold

     Davidson diagonalization with overlap
     ethr =  3.50E-04,  avg # of iterations =  1.5

     total cpu time spent up to now is       18.0 secs

     total energy              =    -188.72814318 Ry
     Harris-Foulkes estimate   =    -188.76161429 Ry
     estimated scf accuracy    <       0.05469862 Ry

     iteration #  2     ecut=    36.00 Ry     beta= 0.70
     Davidson diagonalization with overlap
     ethr =  3.42E-04,  avg # of iterations =  2.0

     total cpu time spent up to now is       23.0 secs

     total energy              =    -188.74241565 Ry
     Harris-Foulkes estimate   =    -188.74948751 Ry
     estimated scf accuracy    <       0.01297851 Ry

     iteration #  3     ecut=    36.00 Ry     beta= 0.70
     Davidson diagonalization with overlap
     ethr =  8.11E-05,  avg # of iterations =  2.1

     total cpu time spent up to now is       27.8 secs

     total energy              =    -188.74535381 Ry
     Harris-Foulkes estimate   =    -188.74524143 Ry
     estimated scf accuracy    <       0.00029418 Ry

     iteration #  4     ecut=    36.00 Ry     beta= 0.70
     Davidson diagonalization with overlap
     ethr =  1.84E-06,  avg # of iterations =  4.0

     total cpu time spent up to now is       33.8 secs

     total energy              =    -188.74539830 Ry
     Harris-Foulkes estimate   =    -188.74539632 Ry
     estimated scf accuracy    <       0.00000176 Ry

     iteration #  5     ecut=    36.00 Ry     beta= 0.70
     Davidson diagonalization with overlap
     ethr =  1.10E-08,  avg # of iterations =  2.0

     total cpu time spent up to now is       39.1 secs

     total energy              =    -188.74539925 Ry
     Harris-Foulkes estimate   =    -188.74539907 Ry
     estimated scf accuracy    <       0.00000028 Ry

     iteration #  6     ecut=    36.00 Ry     beta= 0.70
     Davidson diagonalization with overlap
     ethr =  1.74E-09,  avg # of iterations =  2.0

     total cpu time spent up to now is       44.2 secs

     End of self-consistent calculation

          k = 0.0000 0.0000 0.0000 (  1067 PWs)   bands (ev):

   -48.3699 -19.8671 -19.8671 -19.8671 -11.6566   1.0044   1.0044   1.0044
     6.1267  12.0239  12.0239  12.0239

          k =-0.1111 0.1111 0.1111 (  1100 PWs)   bands (ev):

   -48.3709 -19.9230 -19.9010 -19.9010 -11.6191   0.7045   0.9704   0.9704
     6.5285  11.5990  12.1847  12.1847

          k =-0.2222 0.2222 0.2222 (  1098 PWs)   bands (ev):

   -48.3708 -19.9272 -19.9061 -19.9061 -11.5216   0.0698   0.8881   0.8881
     7.4052  11.0518  12.3806  12.3806

          k =-0.3333 0.3333 0.3333 (  1089 PWs)   bands (ev):

   -48.3704 -19.9255 -19.8998 -19.8998 -11.4069  -0.5283   0.7981   0.7981
     8.1021  11.0827  12.2218  12.2218

          k =-0.4444 0.4444 0.4444 (  1107 PWs)   bands (ev):

   -48.3708 -19.9660 -19.9153 -19.9153 -11.3299  -0.8767   0.7412   0.7412
     8.3183  11.5580  12.0424  12.0424

          k = 0.0000 0.0000 0.2222 (  1110 PWs)   bands (ev):

   -48.3712 -19.9446 -19.9085 -19.9085 -11.6074   0.6807   0.9266   0.9266
     6.6587  11.3598  12.3217  12.3217

          k =-0.1111 0.1111 0.3333 (  1107 PWs)   bands (ev):

   -48.3711 -19.9286 -19.9218 -19.9179 -11.5319   0.2167   0.8378   0.8511
     7.3839  10.8441  12.3900  12.6133

          k =-0.2222 0.2222 0.4444 (  1102 PWs)   bands (ev):

   -48.3709 -19.9297 -19.9204 -19.9198 -11.4252  -0.3399   0.7381   0.7478
     8.1989  10.7058  11.9036  12.5727

          k =-0.3333 0.3333 0.5556 (  1105 PWs)   bands (ev):

   -48.3708 -19.9633 -19.9232 -19.9052 -11.3369  -0.7345   0.6263   0.6972
     8.5835  11.1254  11.6353  12.3540

          k = 0.5556-0.5556-0.3333 (  1100 PWs)   bands (ev):

   -48.3706 -19.9514 -19.9149 -19.9106 -11.3106  -0.8397   0.5668   0.7062
     8.6529  11.2923  11.7137  12.2454

          k = 0.4444-0.4444-0.2222 (  1111 PWs)   bands (ev):

   -48.3710 -19.9545 -19.9353 -19.9193 -11.3609  -0.6276   0.5869   0.7716
     8.5353  11.0572  11.6999  12.3381

          k = 0.3333-0.3333-0.1111 (  1107 PWs)   bands (ev):

   -48.3711 -19.9294 -19.9271 -19.9254 -11.4609  -0.1670   0.6859   0.8658
     7.9711  10.8003  12.0799  12.5996

          k = 0.2222-0.2222-0.0000 (  1109 PWs)   bands (ev):

   -48.3711 -19.9287 -19.9208 -19.9194 -11.5622   0.3651   0.8389   0.9456
     7.0960  11.1406  12.3315  12.4394

          k = 0.0000 0.0000 0.4444 (  1098 PWs)   bands (ev):

   -48.3707 -19.9258 -19.9096 -19.9096 -11.4874   0.0770   0.7424   0.7424
     7.8144  10.3095  12.1799  13.1458

          k =-0.1111 0.1111 0.5556 (  1099 PWs)   bands (ev):

   -48.3707 -19.9318 -19.9193 -19.9086 -11.4074  -0.2576   0.6058   0.6487
     8.4839  10.0103  11.5935  13.3728

          k =-0.2222 0.2222 0.6667 (  1100 PWs)   bands (ev):

   -48.3706 -19.9436 -19.9177 -19.9145 -11.3281  -0.5326   0.3996   0.5981
     9.0178  10.2709  11.1918  13.1414

          k = 0.6667-0.6667-0.2222 (  1109 PWs)   bands (ev):

   -48.3708 -19.9609 -19.9295 -19.9219 -11.2883  -0.6327   0.2178   0.6112
     9.2788  10.5557  11.2999  12.8993

          k = 0.5556-0.5556-0.1111 (  1110 PWs)   bands (ev):

   -48.3709 -19.9543 -19.9386 -19.9207 -11.3078  -0.5548   0.1824   0.6830
     9.3714  10.7603  11.0155  12.8168

          k = 0.4444-0.4444 0.0000 (  1097 PWs)   bands (ev):

   -48.3706 -19.9314 -19.9166 -19.9104 -11.3766  -0.3819   0.3703   0.7834
     8.8591  10.6343  11.3611  12.8833

          k = 0.0000 0.0000 0.6667 (  1110 PWs)   bands (ev):

   -48.3709 -19.9534 -19.9252 -19.9252 -11.3611  -0.3919   0.5494   0.5494
     8.6433   9.5085  11.6194  14.3220

          k =-0.1111 0.1111 0.7778 (  1096 PWs)   bands (ev):

   -48.3704 -19.9287 -19.9200 -19.9137 -11.3075  -0.5176   0.3775   0.4943
     8.8659   9.4514  11.6561  14.3104

          k = 0.7778-0.7778-0.1111 (  1114 PWs)   bands (ev):

   -48.3709 -19.9529 -19.9457 -19.9325 -11.2725  -0.4745   0.0488   0.5049
     9.1702   9.9082  11.5623  13.8623

          k = 0.6667-0.6667-0.0000 (  1125 PWs)   bands (ev):

   -48.3713 -19.9610 -19.9579 -19.9512 -11.2727  -0.3209  -0.2073   0.5778
     9.5928  10.3442  11.2018  13.3729

          k = 0.0000 0.0000 0.8889 (  1102 PWs)   bands (ev):

   -48.3705 -19.9593 -19.9140 -19.9140 -11.2848  -0.6119   0.4319   0.4319
     8.5961   9.0923  12.2266  15.6247

          k = 0.8889-0.8889 0.0000 (  1118 PWs)   bands (ev):

   -48.3710 -19.9773 -19.9352 -19.9317 -11.2709  -0.5870   0.2813   0.4356
     8.7462   9.2540  12.1924  14.8969

          k = 0.0000 0.2222 0.4444 (  1104 PWs)   bands (ev):

   -48.3709 -19.9274 -19.9233 -19.9210 -11.4540  -0.1118   0.6308   0.7986
     8.1186  10.4618  11.8815  13.1556

          k =-0.1111 0.3333 0.5556 (  1104 PWs)   bands (ev):

   -48.3708 -19.9444 -19.9260 -19.9139 -11.3630  -0.4548   0.4402   0.7052
     8.8782  10.5082  11.2693  12.9065

          k = 0.7778-0.5556-0.3333 (  1111 PWs)   bands (ev):

   -48.3709 -19.9632 -19.9277 -19.9265 -11.3022  -0.6698   0.3380   0.6319
     9.1655  10.7583  11.2451  12.6943

          k = 0.0000 0.2222 0.6667 (  1096 PWs)   bands (ev):

   -48.3704 -19.9315 -19.9145 -19.9113 -11.3419  -0.4259   0.4145   0.5614
     9.0187   9.8254  11.2414  13.7156

          k = 0.8889-0.6667-0.2222 (  1099 PWs)   bands (ev):

   -48.3705 -19.9505 -19.9194 -19.9066 -11.2885  -0.4858   0.1719   0.4843
     9.4592  10.1302  11.0036  13.3867

          k = 0.7778-0.5556-0.1111 (  1105 PWs)   bands (ev):

   -48.3707 -19.9534 -19.9319 -19.9152 -11.2727  -0.4371  -0.0198   0.5032
     9.8131  10.2582  11.0347  13.0278

          k = 0.6667-0.4444 0.0000 (  1100 PWs)   bands (ev):

   -48.3705 -19.9419 -19.9242 -19.9123 -11.3024  -0.4523   0.1041   0.5986
     9.7451  10.5454  10.5535  13.1235

          k = 1.0000-0.7778-0.1111 (  1098 PWs)   bands (ev):

   -48.3704 -19.9505 -19.9193 -19.9045 -11.2760  -0.5282   0.2833   0.3733
     9.0195   9.4745  11.7910  14.0829

          k = 0.8889-0.6667-0.0000 (  1110 PWs)   bands (ev):

   -48.3708 -19.9596 -19.9404 -19.9180 -11.2622  -0.3906  -0.0129   0.3875
     9.4000   9.9659  11.4976  13.2505

          k = 1.0000-0.5556-0.1111 (  1108 PWs)   bands (ev):

   -48.3707 -19.9515 -19.9344 -19.9251 -11.2624  -0.3074  -0.0558   0.3189
     9.8502  10.4267  10.7694  12.7706

     the Fermi energy is     3.7105 ev

!    total energy              =    -188.74539933 Ry
     Harris-Foulkes estimate   =    -188.74539934 Ry
     estimated scf accuracy    <          6.1E-09 Ry

     total all-electron energy =     -1248.032414 Ry

     The total energy is the sum of the following terms:

     one-electron contribution =     -80.64298222 Ry
     hartree contribution      =      46.99546701 Ry
     xc contribution           =     -25.65435191 Ry
     ewald contribution        =     -68.79919274 Ry
     one-center paw contrib.   =     -60.64433947 Ry
     smearing contrib. (-TS)   =       0.00000000 Ry

     convergence has been achieved in   6 iterations

     Forces acting on atoms (cartesian axes, Ry/au):

     atom    1 type  2   force =     0.00000000   -0.00000000    0.00000000
     atom    2 type  1   force =     0.00000000    0.00000000    0.00000000

     Total force =     0.000000     Total SCF correction =     0.000000


     Computing stress (Cartesian axis) and pressure

          total   stress  (Ry/bohr**3)                   (kbar)     P= -269.77
  -0.00183383   0.00000000   0.00000000       -269.77      0.00      0.00
   0.00000000  -0.00183383   0.00000000          0.00   -269.77      0.00
   0.00000000   0.00000000  -0.00183383          0.00      0.00   -269.77


     Writing output data file halite.save/

     init_run     :      3.93s CPU      4.03s WALL (       1 calls)
     electrons    :     35.55s CPU     35.91s WALL (       1 calls)
     forces       :      0.57s CPU      0.58s WALL (       1 calls)
     stress       :      1.19s CPU      1.23s WALL (       1 calls)

     Called by init_run:
     wfcinit      :      1.30s CPU      1.33s WALL (       1 calls)
     potinit      :      0.66s CPU      0.67s WALL (       1 calls)
     hinit0       :      1.84s CPU      1.86s WALL (       1 calls)

     Called by electrons:
     c_bands      :     25.81s CPU     25.97s WALL (       7 calls)
     sum_band     :      5.28s CPU      5.40s WALL (       7 calls)
     v_of_rho     :      0.37s CPU      0.37s WALL (       7 calls)
     newd         :      0.77s CPU      0.85s WALL (       7 calls)
     PAW_pot      :      3.96s CPU      3.98s WALL (       7 calls)
     mix_rho      :      0.04s CPU      0.04s WALL (       7 calls)

     Called by c_bands:
     init_us_2    :      0.41s CPU      0.41s WALL (     595 calls)
     cegterg      :     25.25s CPU     25.41s WALL (     245 calls)

     Called by sum_band:
     sum_band:bec :      0.01s CPU      0.01s WALL (     245 calls)
     addusdens    :      0.95s CPU      1.04s WALL (       7 calls)

     Called by *egterg:
     h_psi        :     21.38s CPU     21.53s WALL (     963 calls)
     s_psi        :      1.13s CPU      1.13s WALL (     963 calls)
     g_psi        :      0.04s CPU      0.04s WALL (     683 calls)
     cdiaghg      :      0.58s CPU      0.59s WALL (     893 calls)

     Called by h_psi:
     h_psi:pot    :     21.35s CPU     21.50s WALL (     963 calls)
     h_psi:calbec :      1.23s CPU      1.25s WALL (     963 calls)
     vloc_psi     :     18.98s CPU     19.11s WALL (     963 calls)
     add_vuspsi   :      1.13s CPU      1.14s WALL (     963 calls)

     General routines
     calbec       :      1.99s CPU      2.01s WALL (    1383 calls)
     fft          :      0.30s CPU      0.30s WALL (     115 calls)
     ffts         :      0.04s CPU      0.04s WALL (      14 calls)
     fftw         :     20.50s CPU     20.65s WALL (   19028 calls)
     interpolate  :      0.05s CPU      0.05s WALL (       7 calls)

     Parallel routines

     PWSCF        :     45.49s CPU     46.09s WALL


   This run was terminated on:  18:25:23  18Feb2020            

=------------------------------------------------------------------------------=
   JOB DONE.
=------------------------------------------------------------------------------=
