     Message from routine get_command_line:
     unexpected argument # 2     :-input

     Program PWSCF v.6.4.1 starts on 18Feb2020 at  8:39:49 

     This program is part of the open-source Quantum ESPRESSO suite
     for quantum simulation of materials; please cite
         "P. Giannozzi et al., J. Phys.:Condens. Matter 21 395502 (2009);
         "P. Giannozzi et al., J. Phys.:Condens. Matter 29 465901 (2017);
          URL http://www.quantum-espresso.org", 
     in publications or presentations arising from this work. More details at
     http://www.quantum-espresso.org/quote

     Parallel version (MPI), running on     1 processors

     MPI processes distributed on     1 nodes
     Waiting for input...
     Reading input from standard input

     Current dimensions of program PWSCF are:
     Max number of different atomic species (ntypx) = 10
     Max number of k-points (npk) =  40000
     Max angular momentum in pseudopotentials (lmaxx) =  3
     Message from routine volume:
     axis vectors are left-handed

     IMPORTANT: XC functional enforced from input :
     Exchange-correlation      = PBE ( 1  4  3  4 0 0)
     Any further DFT definition will be discarded
     Please, verify this is what you really want

               file Na.pbe-spn-kjpaw_psl.1.0.0.UPF: wavefunction(s)  2P renormalized
               file Cl.pbe-n-kjpaw_psl.1.0.0.UPF: wavefunction(s)  3S 3P renormalized

     Subspace diagonalization in iterative solution of the eigenvalue problem:
     a serial algorithm will be used

     Message from routine setup:
     DEPRECATED: symmetry with ibrav=0, use correct ibrav instead

     G-vector sticks info
     --------------------
     sticks:   dense  smooth     PW     G-vecs:    dense   smooth      PW
     Sum        3853    3067    847               157117   112123   16361



     bravais-lattice index     =            0
     lattice parameter (alat)  =      10.6591  a.u.
     unit-cell volume          =     302.7633 (a.u.)^3
     number of atoms/cell      =            2
     number of atomic types    =            2
     number of electrons       =        16.00
     number of Kohn-Sham states=           12
     kinetic-energy cutoff     =     196.0000  Ry
     charge density cutoff     =     980.0000  Ry
     convergence threshold     =      1.0E-08
     mixing beta               =       0.7000
     number of iterations used =            8  plain     mixing
     Exchange-correlation      = PBE ( 1  4  3  4 0 0)

     celldm(1)=  10.659114  celldm(2)=   0.000000  celldm(3)=   0.000000
     celldm(4)=   0.000000  celldm(5)=   0.000000  celldm(6)=   0.000000

     crystal axes: (cart. coord. in units of alat)
               a(1) = (   0.500000   0.500000   0.000000 )  
               a(2) = (   0.500000   0.000000   0.500000 )  
               a(3) = (   0.000000   0.500000   0.500000 )  

     reciprocal axes: (cart. coord. in units 2 pi/alat)
               b(1) = (  1.000000  1.000000 -1.000000 )  
               b(2) = (  1.000000 -1.000000  1.000000 )  
               b(3) = ( -1.000000  1.000000  1.000000 )  


     PseudoPot. # 1 for Na read from file:
     ./Na.pbe-spn-kjpaw_psl.1.0.0.UPF
     MD5 check sum: 05b4deb74e3932c23ab016979dc8b5d4
     Pseudo is Projector augmented-wave + core cor, Zval =  9.0
     Generated using "atomic" code by A. Dal Corso v.6.3
     Shape of augmentation charge: PSQ
     Using radial grid of 1121 points,  4 beta functions with: 
                l(1) =   0
                l(2) =   0
                l(3) =   1
                l(4) =   1
     Q(r) pseudized with 0 coefficients 


     PseudoPot. # 2 for Cl read from file:
     ./Cl.pbe-n-kjpaw_psl.1.0.0.UPF
     MD5 check sum: 530da96d25dcb7781b0586ca00827062
     Pseudo is Projector augmented-wave + core cor, Zval =  7.0
     Generated using "atomic" code by A. Dal Corso v.6.3
     Shape of augmentation charge: PSQ
     Using radial grid of 1157 points,  6 beta functions with: 
                l(1) =   0
                l(2) =   0
                l(3) =   1
                l(4) =   1
                l(5) =   2
                l(6) =   2
     Q(r) pseudized with 0 coefficients 


     atomic species   valence    mass     pseudopotential
        Na             9.00    22.98900     Na( 1.00)
        Cl             7.00    35.45150     Cl( 1.00)

     48 Sym. Ops., with inversion, found



   Cartesian axes

     site n.     atom                  positions (alat units)
         1           Cl  tau(   1) = (   0.5000000   0.5000000   0.5000000  )
         2           Na  tau(   2) = (   0.0000000   0.0000000   0.0000000  )

     number of k points=    20  Marzari-Vanderbilt smearing, width (Ry)=  0.0050
                       cart. coord. in units 2pi/alat
        k(    1) = (   0.0000000   0.0000000   0.0000000), wk =   0.0058309
        k(    2) = (  -0.1428571   0.1428571   0.1428571), wk =   0.0466472
        k(    3) = (  -0.2857143   0.2857143   0.2857143), wk =   0.0466472
        k(    4) = (  -0.4285714   0.4285714   0.4285714), wk =   0.0466472
        k(    5) = (   0.0000000   0.0000000   0.2857143), wk =   0.0349854
        k(    6) = (  -0.1428571   0.1428571   0.4285714), wk =   0.1399417
        k(    7) = (  -0.2857143   0.2857143   0.5714286), wk =   0.1399417
        k(    8) = (   0.5714286  -0.5714286  -0.2857143), wk =   0.1399417
        k(    9) = (   0.4285714  -0.4285714  -0.1428571), wk =   0.1399417
        k(   10) = (   0.2857143  -0.2857143  -0.0000000), wk =   0.0699708
        k(   11) = (   0.0000000   0.0000000   0.5714286), wk =   0.0349854
        k(   12) = (  -0.1428571   0.1428571   0.7142857), wk =   0.1399417
        k(   13) = (   0.7142857  -0.7142857  -0.1428571), wk =   0.1399417
        k(   14) = (   0.5714286  -0.5714286   0.0000000), wk =   0.0699708
        k(   15) = (   0.0000000   0.0000000   0.8571429), wk =   0.0349854
        k(   16) = (   0.8571429  -0.8571429  -0.0000000), wk =   0.0699708
        k(   17) = (   0.0000000   0.2857143   0.5714286), wk =   0.1399417
        k(   18) = (   0.8571429  -0.5714286  -0.2857143), wk =   0.2798834
        k(   19) = (   1.0000000  -0.7142857  -0.1428571), wk =   0.1399417
        k(   20) = (   0.8571429  -0.5714286   0.0000000), wk =   0.1399417

     Dense  grid:   157117 G-vectors     FFT dimensions: (  75,  75,  75)

     Smooth grid:   112123 G-vectors     FFT dimensions: (  72,  72,  72)

     Estimated max dynamical RAM per process >     648.65 MB

     Initial potential from superposition of free atoms

     starting charge   15.99370, renormalised to   16.00000
     Starting wfcs are    9 randomized atomic wfcs +    3 random wfcs
     Checking if some PAW data can be deallocated... 

     total cpu time spent up to now is       23.1 secs

     Self-consistent Calculation

     iteration #  1     ecut=   196.00 Ry     beta= 0.70
     Davidson diagonalization with overlap
     ethr =  1.00E-02,  avg # of iterations =  5.8

     Threshold (ethr) on eigenvalues was too large:
     Diagonalizing with lowered threshold

     Davidson diagonalization with overlap
     ethr =  3.33E-04,  avg # of iterations =  1.4

     total cpu time spent up to now is      106.0 secs

     total energy              =    -188.83354435 Ry
     Harris-Foulkes estimate   =    -188.86485089 Ry
     estimated scf accuracy    <       0.05103027 Ry

     iteration #  2     ecut=   196.00 Ry     beta= 0.70
     Davidson diagonalization with overlap
     ethr =  3.19E-04,  avg # of iterations =  2.1

     total cpu time spent up to now is      145.7 secs

     total energy              =    -188.84746335 Ry
     Harris-Foulkes estimate   =    -188.85422917 Ry
     estimated scf accuracy    <       0.01250000 Ry

     iteration #  3     ecut=   196.00 Ry     beta= 0.70
     Davidson diagonalization with overlap
     ethr =  7.81E-05,  avg # of iterations =  2.0

     total cpu time spent up to now is      184.9 secs

     total energy              =    -188.85028947 Ry
     Harris-Foulkes estimate   =    -188.85017112 Ry
     estimated scf accuracy    <       0.00026032 Ry

     iteration #  4     ecut=   196.00 Ry     beta= 0.70
     Davidson diagonalization with overlap
     ethr =  1.63E-06,  avg # of iterations =  3.9

     total cpu time spent up to now is      242.2 secs

     total energy              =    -188.85034340 Ry
     Harris-Foulkes estimate   =    -188.85034156 Ry
     estimated scf accuracy    <       0.00000134 Ry

     iteration #  5     ecut=   196.00 Ry     beta= 0.70
     Davidson diagonalization with overlap
     ethr =  8.35E-09,  avg # of iterations =  3.1

     total cpu time spent up to now is      287.0 secs

     total energy              =    -188.85034460 Ry
     Harris-Foulkes estimate   =    -188.85034450 Ry
     estimated scf accuracy    <       0.00000008 Ry

     iteration #  6     ecut=   196.00 Ry     beta= 0.70
     Davidson diagonalization with overlap
     ethr =  4.97E-10,  avg # of iterations =  2.5

     total cpu time spent up to now is      326.5 secs

     End of self-consistent calculation

          k = 0.0000 0.0000 0.0000 ( 14163 PWs)   bands (ev):

   -47.9567 -19.8696 -19.8696 -19.8696 -11.6950   0.9615   0.9615   0.9615
     6.0643  12.0009  12.0009  12.0009

          k =-0.1429 0.1429 0.1429 ( 14025 PWs)   bands (ev):

   -47.9565 -19.8751 -19.8700 -19.8700 -11.6350   0.4977   0.9095   0.9095
     6.6918  11.3756  12.2317  12.2317

          k =-0.2857 0.2857 0.2857 ( 14022 PWs)   bands (ev):

   -47.9562 -19.8874 -19.8709 -19.8709 -11.4956  -0.3320   0.7970   0.7970
     7.7736  10.9249  12.2061  12.2061

          k =-0.4286 0.4286 0.4286 ( 14053 PWs)   bands (ev):

   -47.9560 -19.8972 -19.8716 -19.8716 -11.3786  -0.8841   0.7109   0.7109
     8.2012  11.4322  11.9088  11.9088

          k = 0.0000 0.0000 0.2857 ( 14004 PWs)   bands (ev):

   -47.9565 -19.8747 -19.8711 -19.8711 -11.6170   0.4753   0.8376   0.8376
     6.8965  11.0283  12.4684  12.4684

          k =-0.1429 0.1429 0.4286 ( 14002 PWs)   bands (ev):

   -47.9562 -19.8833 -19.8724 -19.8719 -11.5085  -0.1202   0.7114   0.7158
     7.8754  10.4859  11.8987  12.7246

          k =-0.2857 0.2857 0.5714 ( 14033 PWs)   bands (ev):

   -47.9559 -19.8929 -19.8734 -19.8730 -11.3871  -0.6726   0.5368   0.6365
     8.5997  10.7797  11.3421  12.4259

          k = 0.5714-0.5714-0.2857 ( 14029 PWs)   bands (ev):

   -47.9559 -19.8958 -19.8748 -19.8723 -11.3473  -0.8271   0.4279   0.6536
     8.7365  10.9893  11.4939  12.2266

          k = 0.4286-0.4286-0.1429 ( 14040 PWs)   bands (ev):

   -47.9560 -19.8903 -19.8748 -19.8710 -11.4221  -0.5150   0.4747   0.7559
     8.5020  10.7708  11.4887  12.3960

          k = 0.2857-0.2857-0.0000 ( 13995 PWs)   bands (ev):

   -47.9563 -19.8810 -19.8727 -19.8699 -11.5503   0.0601   0.6874   0.8715
     7.5078  10.8389  12.1309  12.6854

          k = 0.0000 0.0000 0.5714 ( 14068 PWs)   bands (ev):

   -47.9561 -19.8839 -19.8745 -19.8745 -11.4516  -0.2614   0.5809   0.5809
     8.3384   9.7825  11.5365  13.6921

          k =-0.1429 0.1429 0.7143 ( 14044 PWs)   bands (ev):

   -47.9558 -19.8883 -19.8769 -19.8755 -11.3657  -0.5240   0.3475   0.4942
     8.8709   9.6759  11.2653  13.6889

          k = 0.7143-0.7143-0.1429 ( 14024 PWs)   bands (ev):

   -47.9557 -19.8896 -19.8810 -19.8747 -11.3161  -0.5396  -0.0194   0.5141
     9.2900  10.1936  11.2197  13.2182

          k = 0.5714-0.5714 0.0000 ( 13999 PWs)   bands (ev):

   -47.9558 -19.8897 -19.8808 -19.8727 -11.3418  -0.4931  -0.0175   0.6277
     9.5352  10.5183  10.7842  12.8463

          k = 0.0000 0.0000 0.8571 ( 14016 PWs)   bands (ev):

   -47.9557 -19.8890 -19.8772 -19.8772 -11.3302  -0.6490   0.3933   0.3933
     8.5420   9.1002  12.0156  15.2859

          k = 0.8571-0.8571-0.0000 ( 14042 PWs)   bands (ev):

   -47.9557 -19.8884 -19.8802 -19.8769 -11.3081  -0.6087   0.1569   0.4017
     8.7723   9.3635  11.9777  14.4707

          k = 0.0000 0.2857 0.5714 ( 14037 PWs)   bands (ev):

   -47.9560 -19.8876 -19.8764 -19.8727 -11.4127  -0.4069   0.3803   0.6421
     8.8167  10.1766  11.1183  13.1299

          k = 0.8571-0.5714-0.2857 ( 14039 PWs)   bands (ev):

   -47.9558 -19.8909 -19.8787 -19.8742 -11.3338  -0.5866   0.1359   0.5240
     9.4652  10.3724  10.8436  12.8391

          k = 1.0000-0.7143-0.1429 ( 14043 PWs)   bands (ev):

   -47.9557 -19.8879 -19.8794 -19.8777 -11.3162  -0.5306   0.1585   0.3299
     9.2005   9.6942  11.3237  13.5005

          k = 0.8571-0.5714 0.0000 ( 14022 PWs)   bands (ev):

   -47.9557 -19.8850 -19.8844 -19.8770 -11.3020  -0.2963  -0.2326   0.3477
     9.6998  10.2178  10.9853  12.6704

     the Fermi energy is     3.5130 ev

!    total energy              =    -188.85034463 Ry
     Harris-Foulkes estimate   =    -188.85034463 Ry
     estimated scf accuracy    <          5.7E-10 Ry

     total all-electron energy =     -1248.137360 Ry

     The total energy is the sum of the following terms:

     one-electron contribution =     -80.91658192 Ry
     hartree contribution      =      47.14392946 Ry
     xc contribution           =     -25.67428504 Ry
     ewald contribution        =     -68.79919271 Ry
     one-center paw contrib.   =     -60.60421443 Ry
     smearing contrib. (-TS)   =       0.00000000 Ry

     convergence has been achieved in   6 iterations

     Forces acting on atoms (cartesian axes, Ry/au):

     atom    1 type  2   force =     0.00000000    0.00000000    0.00000000
     atom    2 type  1   force =     0.00000000    0.00000000   -0.00000000

     Total force =     0.000000     Total SCF correction =     0.000000


     Computing stress (Cartesian axis) and pressure

          total   stress  (Ry/bohr**3)                   (kbar)     P=    8.06
   0.00005480   0.00000000   0.00000000          8.06      0.00      0.00
   0.00000000   0.00005480   0.00000000          0.00      8.06      0.00
   0.00000000   0.00000000   0.00005480          0.00      0.00      8.06


     Writing output data file halite.save/

     init_run     :     16.12s CPU     18.17s WALL (       1 calls)
     electrons    :    214.87s CPU    308.15s WALL (       1 calls)
     forces       :      5.33s CPU     12.26s WALL (       1 calls)
     stress       :     11.08s CPU     20.19s WALL (       1 calls)

     Called by init_run:
     wfcinit      :      8.22s CPU      9.79s WALL (       1 calls)
     potinit      :      1.40s CPU      1.45s WALL (       1 calls)
     hinit0       :      4.90s CPU      4.98s WALL (       1 calls)

     Called by electrons:
     c_bands      :    157.53s CPU    181.23s WALL (       7 calls)
     sum_band     :     40.87s CPU     71.80s WALL (       7 calls)
     v_of_rho     :      4.12s CPU      8.83s WALL (       7 calls)
     newd         :      9.51s CPU     21.61s WALL (       7 calls)
     PAW_pot      :      4.36s CPU      9.10s WALL (       7 calls)
     mix_rho      :      0.50s CPU      3.23s WALL (       7 calls)

     Called by c_bands:
     init_us_2    :      3.11s CPU      9.07s WALL (     340 calls)
     cegterg      :    153.24s CPU    163.90s WALL (     140 calls)

     Called by sum_band:
     sum_band:bec :      0.01s CPU      0.01s WALL (     140 calls)
     addusdens    :     12.53s CPU     31.13s WALL (       7 calls)

     Called by *egterg:
     h_psi        :    125.78s CPU    130.19s WALL (     581 calls)
     s_psi        :      8.30s CPU      8.38s WALL (     581 calls)
     g_psi        :      0.30s CPU      0.30s WALL (     421 calls)
     cdiaghg      :      0.41s CPU      4.61s WALL (     541 calls)

     Called by h_psi:
     h_psi:pot    :    125.52s CPU    129.93s WALL (     581 calls)
     h_psi:calbec :      9.14s CPU      9.53s WALL (     581 calls)
     vloc_psi     :    108.23s CPU    112.15s WALL (     581 calls)
     add_vuspsi   :      8.15s CPU      8.21s WALL (     581 calls)

     General routines
     calbec       :     14.60s CPU     15.12s WALL (     821 calls)
     fft          :      2.98s CPU      8.72s WALL (     115 calls)
     ffts         :      0.27s CPU      0.27s WALL (      14 calls)
     fftw         :    109.78s CPU    112.95s WALL (   10998 calls)
     interpolate  :      0.35s CPU      0.36s WALL (       7 calls)

     Parallel routines

     PWSCF        :   4m12.47s CPU   6m32.44s WALL


   This run was terminated on:   8:46:22  18Feb2020            

=------------------------------------------------------------------------------=
   JOB DONE.
=------------------------------------------------------------------------------=
