     Message from routine get_command_line:
     unexpected argument # 2     :-input

     Program PWSCF v.6.4.1 starts on 18Feb2020 at  8:24:57 

     This program is part of the open-source Quantum ESPRESSO suite
     for quantum simulation of materials; please cite
         "P. Giannozzi et al., J. Phys.:Condens. Matter 21 395502 (2009);
         "P. Giannozzi et al., J. Phys.:Condens. Matter 29 465901 (2017);
          URL http://www.quantum-espresso.org", 
     in publications or presentations arising from this work. More details at
     http://www.quantum-espresso.org/quote

     Parallel version (MPI), running on     1 processors

     MPI processes distributed on     1 nodes
     Waiting for input...
     Reading input from standard input

     Current dimensions of program PWSCF are:
     Max number of different atomic species (ntypx) = 10
     Max number of k-points (npk) =  40000
     Max angular momentum in pseudopotentials (lmaxx) =  3
     Message from routine volume:
     axis vectors are left-handed

     IMPORTANT: XC functional enforced from input :
     Exchange-correlation      = PBE ( 1  4  3  4 0 0)
     Any further DFT definition will be discarded
     Please, verify this is what you really want

               file Na.pbe-spn-kjpaw_psl.1.0.0.UPF: wavefunction(s)  2P renormalized
               file Cl.pbe-n-kjpaw_psl.1.0.0.UPF: wavefunction(s)  3S 3P renormalized

     Subspace diagonalization in iterative solution of the eigenvalue problem:
     a serial algorithm will be used

     Message from routine setup:
     DEPRECATED: symmetry with ibrav=0, use correct ibrav instead

     G-vector sticks info
     --------------------
     sticks:   dense  smooth     PW     G-vecs:    dense   smooth      PW
     Sum        3055    2431    673               111547    79423   11791



     bravais-lattice index     =            0
     lattice parameter (alat)  =      10.6591  a.u.
     unit-cell volume          =     302.7633 (a.u.)^3
     number of atoms/cell      =            2
     number of atomic types    =            2
     number of electrons       =        16.00
     number of Kohn-Sham states=           12
     kinetic-energy cutoff     =     156.0000  Ry
     charge density cutoff     =     780.0000  Ry
     convergence threshold     =      1.0E-08
     mixing beta               =       0.7000
     number of iterations used =            8  plain     mixing
     Exchange-correlation      = PBE ( 1  4  3  4 0 0)

     celldm(1)=  10.659114  celldm(2)=   0.000000  celldm(3)=   0.000000
     celldm(4)=   0.000000  celldm(5)=   0.000000  celldm(6)=   0.000000

     crystal axes: (cart. coord. in units of alat)
               a(1) = (   0.500000   0.500000   0.000000 )  
               a(2) = (   0.500000   0.000000   0.500000 )  
               a(3) = (   0.000000   0.500000   0.500000 )  

     reciprocal axes: (cart. coord. in units 2 pi/alat)
               b(1) = (  1.000000  1.000000 -1.000000 )  
               b(2) = (  1.000000 -1.000000  1.000000 )  
               b(3) = ( -1.000000  1.000000  1.000000 )  


     PseudoPot. # 1 for Na read from file:
     ./Na.pbe-spn-kjpaw_psl.1.0.0.UPF
     MD5 check sum: 05b4deb74e3932c23ab016979dc8b5d4
     Pseudo is Projector augmented-wave + core cor, Zval =  9.0
     Generated using "atomic" code by A. Dal Corso v.6.3
     Shape of augmentation charge: PSQ
     Using radial grid of 1121 points,  4 beta functions with: 
                l(1) =   0
                l(2) =   0
                l(3) =   1
                l(4) =   1
     Q(r) pseudized with 0 coefficients 


     PseudoPot. # 2 for Cl read from file:
     ./Cl.pbe-n-kjpaw_psl.1.0.0.UPF
     MD5 check sum: 530da96d25dcb7781b0586ca00827062
     Pseudo is Projector augmented-wave + core cor, Zval =  7.0
     Generated using "atomic" code by A. Dal Corso v.6.3
     Shape of augmentation charge: PSQ
     Using radial grid of 1157 points,  6 beta functions with: 
                l(1) =   0
                l(2) =   0
                l(3) =   1
                l(4) =   1
                l(5) =   2
                l(6) =   2
     Q(r) pseudized with 0 coefficients 


     atomic species   valence    mass     pseudopotential
        Na             9.00    22.98900     Na( 1.00)
        Cl             7.00    35.45150     Cl( 1.00)

     48 Sym. Ops., with inversion, found



   Cartesian axes

     site n.     atom                  positions (alat units)
         1           Cl  tau(   1) = (   0.5000000   0.5000000   0.5000000  )
         2           Na  tau(   2) = (   0.0000000   0.0000000   0.0000000  )

     number of k points=    20  Marzari-Vanderbilt smearing, width (Ry)=  0.0050
                       cart. coord. in units 2pi/alat
        k(    1) = (   0.0000000   0.0000000   0.0000000), wk =   0.0058309
        k(    2) = (  -0.1428571   0.1428571   0.1428571), wk =   0.0466472
        k(    3) = (  -0.2857143   0.2857143   0.2857143), wk =   0.0466472
        k(    4) = (  -0.4285714   0.4285714   0.4285714), wk =   0.0466472
        k(    5) = (   0.0000000   0.0000000   0.2857143), wk =   0.0349854
        k(    6) = (  -0.1428571   0.1428571   0.4285714), wk =   0.1399417
        k(    7) = (  -0.2857143   0.2857143   0.5714286), wk =   0.1399417
        k(    8) = (   0.5714286  -0.5714286  -0.2857143), wk =   0.1399417
        k(    9) = (   0.4285714  -0.4285714  -0.1428571), wk =   0.1399417
        k(   10) = (   0.2857143  -0.2857143  -0.0000000), wk =   0.0699708
        k(   11) = (   0.0000000   0.0000000   0.5714286), wk =   0.0349854
        k(   12) = (  -0.1428571   0.1428571   0.7142857), wk =   0.1399417
        k(   13) = (   0.7142857  -0.7142857  -0.1428571), wk =   0.1399417
        k(   14) = (   0.5714286  -0.5714286   0.0000000), wk =   0.0699708
        k(   15) = (   0.0000000   0.0000000   0.8571429), wk =   0.0349854
        k(   16) = (   0.8571429  -0.8571429  -0.0000000), wk =   0.0699708
        k(   17) = (   0.0000000   0.2857143   0.5714286), wk =   0.1399417
        k(   18) = (   0.8571429  -0.5714286  -0.2857143), wk =   0.2798834
        k(   19) = (   1.0000000  -0.7142857  -0.1428571), wk =   0.1399417
        k(   20) = (   0.8571429  -0.5714286   0.0000000), wk =   0.1399417

     Dense  grid:   111547 G-vectors     FFT dimensions: (  72,  72,  72)

     Smooth grid:    79423 G-vectors     FFT dimensions: (  60,  60,  60)

     Estimated max dynamical RAM per process >     467.14 MB

     Initial potential from superposition of free atoms

     starting charge   15.99370, renormalised to   16.00000
     Starting wfcs are    9 randomized atomic wfcs +    3 random wfcs
     Checking if some PAW data can be deallocated... 

     total cpu time spent up to now is       17.1 secs

     Self-consistent Calculation

     iteration #  1     ecut=   156.00 Ry     beta= 0.70
     Davidson diagonalization with overlap
     ethr =  1.00E-02,  avg # of iterations =  5.8

     Threshold (ethr) on eigenvalues was too large:
     Diagonalizing with lowered threshold

     Davidson diagonalization with overlap
     ethr =  3.33E-04,  avg # of iterations =  1.6

     total cpu time spent up to now is       58.7 secs

     total energy              =    -188.83347050 Ry
     Harris-Foulkes estimate   =    -188.86480769 Ry
     estimated scf accuracy    <       0.05105596 Ry

     iteration #  2     ecut=   156.00 Ry     beta= 0.70
     Davidson diagonalization with overlap
     ethr =  3.19E-04,  avg # of iterations =  2.4

     total cpu time spent up to now is       79.3 secs

     total energy              =    -188.84741254 Ry
     Harris-Foulkes estimate   =    -188.85419734 Ry
     estimated scf accuracy    <       0.01252526 Ry

     iteration #  3     ecut=   156.00 Ry     beta= 0.70
     Davidson diagonalization with overlap
     ethr =  7.83E-05,  avg # of iterations =  2.4

     total cpu time spent up to now is      100.7 secs

     total energy              =    -188.85024429 Ry
     Harris-Foulkes estimate   =    -188.85012628 Ry
     estimated scf accuracy    <       0.00026020 Ry

     iteration #  4     ecut=   156.00 Ry     beta= 0.70
     Davidson diagonalization with overlap
     ethr =  1.63E-06,  avg # of iterations =  4.0

     total cpu time spent up to now is      125.7 secs

     total energy              =    -188.85029699 Ry
     Harris-Foulkes estimate   =    -188.85029525 Ry
     estimated scf accuracy    <       0.00000136 Ry

     iteration #  5     ecut=   156.00 Ry     beta= 0.70
     Davidson diagonalization with overlap
     ethr =  8.47E-09,  avg # of iterations =  3.1

     total cpu time spent up to now is      149.8 secs

     total energy              =    -188.85029827 Ry
     Harris-Foulkes estimate   =    -188.85029816 Ry
     estimated scf accuracy    <       0.00000009 Ry

     iteration #  6     ecut=   156.00 Ry     beta= 0.70
     Davidson diagonalization with overlap
     ethr =  5.83E-10,  avg # of iterations =  2.6

     total cpu time spent up to now is      170.0 secs

     End of self-consistent calculation

          k = 0.0000 0.0000 0.0000 (  9841 PWs)   bands (ev):

   -47.9564 -19.8694 -19.8694 -19.8694 -11.6949   0.9616   0.9616   0.9616
     6.0643  12.0009  12.0009  12.0009

          k =-0.1429 0.1429 0.1429 (  9907 PWs)   bands (ev):

   -47.9563 -19.8750 -19.8698 -19.8698 -11.6349   0.4978   0.9095   0.9095
     6.6918  11.3756  12.2317  12.2317

          k =-0.2857 0.2857 0.2857 (  9957 PWs)   bands (ev):

   -47.9560 -19.8873 -19.8707 -19.8707 -11.4955  -0.3319   0.7971   0.7971
     7.7736  10.9249  12.2062  12.2062

          k =-0.4286 0.4286 0.4286 (  9954 PWs)   bands (ev):

   -47.9557 -19.8971 -19.8715 -19.8715 -11.3786  -0.8841   0.7109   0.7109
     8.2012  11.4322  11.9088  11.9088

          k = 0.0000 0.0000 0.2857 (  9913 PWs)   bands (ev):

   -47.9562 -19.8746 -19.8709 -19.8709 -11.6169   0.4754   0.8376   0.8376
     6.8965  11.0283  12.4684  12.4684

          k =-0.1429 0.1429 0.4286 (  9933 PWs)   bands (ev):

   -47.9560 -19.8832 -19.8723 -19.8718 -11.5085  -0.1202   0.7115   0.7159
     7.8754  10.4858  11.8987  12.7247

          k =-0.2857 0.2857 0.5714 (  9956 PWs)   bands (ev):

   -47.9557 -19.8928 -19.8733 -19.8729 -11.3870  -0.6726   0.5369   0.6365
     8.5997  10.7797  11.3420  12.4259

          k = 0.5714-0.5714-0.2857 (  9989 PWs)   bands (ev):

   -47.9556 -19.8957 -19.8747 -19.8722 -11.3472  -0.8270   0.4280   0.6536
     8.7364  10.9894  11.4939  12.2266

          k = 0.4286-0.4286-0.1429 (  9972 PWs)   bands (ev):

   -47.9558 -19.8902 -19.8747 -19.8709 -11.4220  -0.5149   0.4748   0.7559
     8.5020  10.7708  11.4887  12.3960

          k = 0.2857-0.2857-0.0000 (  9953 PWs)   bands (ev):

   -47.9561 -19.8809 -19.8726 -19.8698 -11.5502   0.0601   0.6875   0.8715
     7.5078  10.8389  12.1309  12.6854

          k = 0.0000 0.0000 0.5714 (  9977 PWs)   bands (ev):

   -47.9558 -19.8838 -19.8744 -19.8744 -11.4515  -0.2614   0.5809   0.5809
     8.3384   9.7824  11.5365  13.6922

          k =-0.1429 0.1429 0.7143 (  9976 PWs)   bands (ev):

   -47.9556 -19.8882 -19.8768 -19.8754 -11.3656  -0.5240   0.3476   0.4943
     8.8709   9.6758  11.2653  13.6889

          k = 0.7143-0.7143-0.1429 (  9958 PWs)   bands (ev):

   -47.9555 -19.8895 -19.8809 -19.8746 -11.3160  -0.5396  -0.0194   0.5141
     9.2900  10.1936  11.2197  13.2182

          k = 0.5714-0.5714 0.0000 (  9947 PWs)   bands (ev):

   -47.9556 -19.8896 -19.8807 -19.8726 -11.3417  -0.4930  -0.0174   0.6278
     9.5352  10.5183  10.7842  12.8463

          k = 0.0000 0.0000 0.8571 (  9994 PWs)   bands (ev):

   -47.9555 -19.8889 -19.8771 -19.8771 -11.3301  -0.6489   0.3934   0.3934
     8.5420   9.1002  12.0156  15.2858

          k = 0.8571-0.8571-0.0000 (  9969 PWs)   bands (ev):

   -47.9554 -19.8883 -19.8801 -19.8768 -11.3081  -0.6087   0.1570   0.4017
     8.7723   9.3634  11.9777  14.4707

          k = 0.0000 0.2857 0.5714 (  9972 PWs)   bands (ev):

   -47.9557 -19.8875 -19.8763 -19.8726 -11.4127  -0.4068   0.3803   0.6421
     8.8167  10.1766  11.1184  13.1299

          k = 0.8571-0.5714-0.2857 (  9970 PWs)   bands (ev):

   -47.9555 -19.8908 -19.8786 -19.8741 -11.3337  -0.5865   0.1359   0.5240
     9.4652  10.3724  10.8436  12.8391

          k = 1.0000-0.7143-0.1429 (  9979 PWs)   bands (ev):

   -47.9554 -19.8878 -19.8793 -19.8776 -11.3161  -0.5306   0.1585   0.3300
     9.2005   9.6942  11.3237  13.5005

          k = 0.8571-0.5714 0.0000 (  9960 PWs)   bands (ev):

   -47.9554 -19.8849 -19.8843 -19.8769 -11.3020  -0.2963  -0.2325   0.3477
     9.6998  10.2178  10.9853  12.6705

     the Fermi energy is     3.5130 ev

!    total energy              =    -188.85029830 Ry
     Harris-Foulkes estimate   =    -188.85029830 Ry
     estimated scf accuracy    <          1.3E-09 Ry

     total all-electron energy =     -1248.137313 Ry

     The total energy is the sum of the following terms:

     one-electron contribution =     -80.91657293 Ry
     hartree contribution      =      47.14387444 Ry
     xc contribution           =     -25.67423577 Ry
     ewald contribution        =     -68.79919271 Ry
     one-center paw contrib.   =     -60.60417133 Ry
     smearing contrib. (-TS)   =       0.00000000 Ry

     convergence has been achieved in   6 iterations

     Forces acting on atoms (cartesian axes, Ry/au):

     atom    1 type  2   force =     0.00000000    0.00000000    0.00000000
     atom    2 type  1   force =    -0.00000000   -0.00000000    0.00000000

     Total force =     0.000000     Total SCF correction =     0.000000


     Computing stress (Cartesian axis) and pressure

          total   stress  (Ry/bohr**3)                   (kbar)     P=    8.08
   0.00005496   0.00000000   0.00000000          8.08      0.00      0.00
   0.00000000   0.00005496   0.00000000          0.00      8.08      0.00
   0.00000000   0.00000000   0.00005496          0.00      0.00      8.08


     Writing output data file halite.save/

     init_run     :     11.98s CPU     12.41s WALL (       1 calls)
     electrons    :    148.82s CPU    153.41s WALL (       1 calls)
     forces       :      3.73s CPU      4.02s WALL (       1 calls)
     stress       :      8.19s CPU      8.79s WALL (       1 calls)

     Called by init_run:
     wfcinit      :      5.17s CPU      5.29s WALL (       1 calls)
     potinit      :      1.26s CPU      1.27s WALL (       1 calls)
     hinit0       :      4.37s CPU      4.46s WALL (       1 calls)

     Called by electrons:
     c_bands      :    106.82s CPU    107.52s WALL (       7 calls)
     sum_band     :     28.83s CPU     30.44s WALL (       7 calls)
     v_of_rho     :      3.13s CPU      3.27s WALL (       7 calls)
     newd         :      6.99s CPU      8.33s WALL (       7 calls)
     PAW_pot      :      4.40s CPU      4.53s WALL (       7 calls)
     mix_rho      :      0.31s CPU      0.42s WALL (       7 calls)

     Called by c_bands:
     init_us_2    :      2.12s CPU      2.16s WALL (     340 calls)
     cegterg      :    103.83s CPU    104.51s WALL (     140 calls)

     Called by sum_band:
     sum_band:bec :      0.01s CPU      0.01s WALL (     140 calls)
     addusdens    :      8.74s CPU     10.19s WALL (       7 calls)

     Called by *egterg:
     h_psi        :     83.51s CPU     84.03s WALL (     595 calls)
     s_psi        :      5.89s CPU      5.94s WALL (     595 calls)
     g_psi        :      0.22s CPU      0.22s WALL (     435 calls)
     cdiaghg      :      0.41s CPU      0.51s WALL (     555 calls)

     Called by h_psi:
     h_psi:pot    :     83.34s CPU     83.86s WALL (     595 calls)
     h_psi:calbec :      6.58s CPU      6.61s WALL (     595 calls)
     vloc_psi     :     70.89s CPU     71.34s WALL (     595 calls)
     add_vuspsi   :      5.86s CPU      5.89s WALL (     595 calls)

     General routines
     calbec       :     10.54s CPU     10.60s WALL (     835 calls)
     fft          :      2.07s CPU      2.14s WALL (     115 calls)
     ffts         :      0.17s CPU      0.18s WALL (      14 calls)
     fftw         :     75.80s CPU     76.30s WALL (   11030 calls)
     interpolate  :      0.27s CPU      0.28s WALL (       7 calls)

     Parallel routines

     PWSCF        :   2m57.26s CPU   3m 6.65s WALL


   This run was terminated on:   8:28: 3  18Feb2020            

=------------------------------------------------------------------------------=
   JOB DONE.
=------------------------------------------------------------------------------=
