     Message from routine get_command_line:
     unexpected argument # 2     :-input

     Program PWSCF v.6.4.1 starts on 18Feb2020 at  6: 6:29 

     This program is part of the open-source Quantum ESPRESSO suite
     for quantum simulation of materials; please cite
         "P. Giannozzi et al., J. Phys.:Condens. Matter 21 395502 (2009);
         "P. Giannozzi et al., J. Phys.:Condens. Matter 29 465901 (2017);
          URL http://www.quantum-espresso.org", 
     in publications or presentations arising from this work. More details at
     http://www.quantum-espresso.org/quote

     Parallel version (MPI), running on     1 processors

     MPI processes distributed on     1 nodes
     Waiting for input...
     Reading input from standard input

     Current dimensions of program PWSCF are:
     Max number of different atomic species (ntypx) = 10
     Max number of k-points (npk) =  40000
     Max angular momentum in pseudopotentials (lmaxx) =  3
     Message from routine volume:
     axis vectors are left-handed

     IMPORTANT: XC functional enforced from input :
     Exchange-correlation      = PBE ( 1  4  3  4 0 0)
     Any further DFT definition will be discarded
     Please, verify this is what you really want

               file Na.pbe-spn-kjpaw_psl.1.0.0.UPF: wavefunction(s)  2P renormalized
               file Cl.pbe-n-kjpaw_psl.1.0.0.UPF: wavefunction(s)  3S 3P renormalized

     Subspace diagonalization in iterative solution of the eigenvalue problem:
     a serial algorithm will be used

     Message from routine setup:
     DEPRECATED: symmetry with ibrav=0, use correct ibrav instead

     G-vector sticks info
     --------------------
     sticks:   dense  smooth     PW     G-vecs:    dense   smooth      PW
     Sum        1261    1039    313                29627    22075    3647



     bravais-lattice index     =            0
     lattice parameter (alat)  =      10.6591  a.u.
     unit-cell volume          =     302.7633 (a.u.)^3
     number of atoms/cell      =            2
     number of atomic types    =            2
     number of electrons       =        16.00
     number of Kohn-Sham states=           12
     kinetic-energy cutoff     =      66.0000  Ry
     charge density cutoff     =     323.0000  Ry
     convergence threshold     =      1.0E-08
     mixing beta               =       0.7000
     number of iterations used =            8  plain     mixing
     Exchange-correlation      = PBE ( 1  4  3  4 0 0)

     celldm(1)=  10.659114  celldm(2)=   0.000000  celldm(3)=   0.000000
     celldm(4)=   0.000000  celldm(5)=   0.000000  celldm(6)=   0.000000

     crystal axes: (cart. coord. in units of alat)
               a(1) = (   0.500000   0.500000   0.000000 )  
               a(2) = (   0.500000   0.000000   0.500000 )  
               a(3) = (   0.000000   0.500000   0.500000 )  

     reciprocal axes: (cart. coord. in units 2 pi/alat)
               b(1) = (  1.000000  1.000000 -1.000000 )  
               b(2) = (  1.000000 -1.000000  1.000000 )  
               b(3) = ( -1.000000  1.000000  1.000000 )  


     PseudoPot. # 1 for Na read from file:
     ./Na.pbe-spn-kjpaw_psl.1.0.0.UPF
     MD5 check sum: 05b4deb74e3932c23ab016979dc8b5d4
     Pseudo is Projector augmented-wave + core cor, Zval =  9.0
     Generated using "atomic" code by A. Dal Corso v.6.3
     Shape of augmentation charge: PSQ
     Using radial grid of 1121 points,  4 beta functions with: 
                l(1) =   0
                l(2) =   0
                l(3) =   1
                l(4) =   1
     Q(r) pseudized with 0 coefficients 


     PseudoPot. # 2 for Cl read from file:
     ./Cl.pbe-n-kjpaw_psl.1.0.0.UPF
     MD5 check sum: 530da96d25dcb7781b0586ca00827062
     Pseudo is Projector augmented-wave + core cor, Zval =  7.0
     Generated using "atomic" code by A. Dal Corso v.6.3
     Shape of augmentation charge: PSQ
     Using radial grid of 1157 points,  6 beta functions with: 
                l(1) =   0
                l(2) =   0
                l(3) =   1
                l(4) =   1
                l(5) =   2
                l(6) =   2
     Q(r) pseudized with 0 coefficients 


     atomic species   valence    mass     pseudopotential
        Na             9.00    22.98900     Na( 1.00)
        Cl             7.00    35.45150     Cl( 1.00)

     48 Sym. Ops., with inversion, found



   Cartesian axes

     site n.     atom                  positions (alat units)
         1           Cl  tau(   1) = (   0.5000000   0.5000000   0.5000000  )
         2           Na  tau(   2) = (   0.0000000   0.0000000   0.0000000  )

     number of k points=    56  Marzari-Vanderbilt smearing, width (Ry)=  0.0050
                       cart. coord. in units 2pi/alat
        k(    1) = (   0.0000000   0.0000000   0.0000000), wk =   0.0015026
        k(    2) = (  -0.0909091   0.0909091   0.0909091), wk =   0.0120210
        k(    3) = (  -0.1818182   0.1818182   0.1818182), wk =   0.0120210
        k(    4) = (  -0.2727273   0.2727273   0.2727273), wk =   0.0120210
        k(    5) = (  -0.3636364   0.3636364   0.3636364), wk =   0.0120210
        k(    6) = (  -0.4545455   0.4545455   0.4545455), wk =   0.0120210
        k(    7) = (   0.0000000   0.0000000   0.1818182), wk =   0.0090158
        k(    8) = (  -0.0909091   0.0909091   0.2727273), wk =   0.0360631
        k(    9) = (  -0.1818182   0.1818182   0.3636364), wk =   0.0360631
        k(   10) = (  -0.2727273   0.2727273   0.4545455), wk =   0.0360631
        k(   11) = (  -0.3636364   0.3636364   0.5454545), wk =   0.0360631
        k(   12) = (   0.5454545  -0.5454545  -0.3636364), wk =   0.0360631
        k(   13) = (   0.4545455  -0.4545455  -0.2727273), wk =   0.0360631
        k(   14) = (   0.3636364  -0.3636364  -0.1818182), wk =   0.0360631
        k(   15) = (   0.2727273  -0.2727273  -0.0909091), wk =   0.0360631
        k(   16) = (   0.1818182  -0.1818182  -0.0000000), wk =   0.0180316
        k(   17) = (   0.0000000   0.0000000   0.3636364), wk =   0.0090158
        k(   18) = (  -0.0909091   0.0909091   0.4545455), wk =   0.0360631
        k(   19) = (  -0.1818182   0.1818182   0.5454545), wk =   0.0360631
        k(   20) = (  -0.2727273   0.2727273   0.6363636), wk =   0.0360631
        k(   21) = (   0.6363636  -0.6363636  -0.2727273), wk =   0.0360631
        k(   22) = (   0.5454545  -0.5454545  -0.1818182), wk =   0.0360631
        k(   23) = (   0.4545455  -0.4545455  -0.0909091), wk =   0.0360631
        k(   24) = (   0.3636364  -0.3636364   0.0000000), wk =   0.0180316
        k(   25) = (   0.0000000   0.0000000   0.5454545), wk =   0.0090158
        k(   26) = (  -0.0909091   0.0909091   0.6363636), wk =   0.0360631
        k(   27) = (  -0.1818182   0.1818182   0.7272727), wk =   0.0360631
        k(   28) = (   0.7272727  -0.7272727  -0.1818182), wk =   0.0360631
        k(   29) = (   0.6363636  -0.6363636  -0.0909091), wk =   0.0360631
        k(   30) = (   0.5454545  -0.5454545   0.0000000), wk =   0.0180316
        k(   31) = (   0.0000000   0.0000000   0.7272727), wk =   0.0090158
        k(   32) = (  -0.0909091   0.0909091   0.8181818), wk =   0.0360631
        k(   33) = (   0.8181818  -0.8181818  -0.0909091), wk =   0.0360631
        k(   34) = (   0.7272727  -0.7272727   0.0000000), wk =   0.0180316
        k(   35) = (   0.0000000   0.0000000   0.9090909), wk =   0.0090158
        k(   36) = (   0.9090909  -0.9090909  -0.0000000), wk =   0.0180316
        k(   37) = (   0.0000000   0.1818182   0.3636364), wk =   0.0360631
        k(   38) = (  -0.0909091   0.2727273   0.4545455), wk =   0.0721262
        k(   39) = (  -0.1818182   0.3636364   0.5454545), wk =   0.0721262
        k(   40) = (   0.7272727  -0.5454545  -0.3636364), wk =   0.0721262
        k(   41) = (   0.0000000   0.1818182   0.5454545), wk =   0.0360631
        k(   42) = (  -0.0909091   0.2727273   0.6363636), wk =   0.0721262
        k(   43) = (   0.8181818  -0.6363636  -0.2727273), wk =   0.0721262
        k(   44) = (   0.7272727  -0.5454545  -0.1818182), wk =   0.0721262
        k(   45) = (   0.6363636  -0.4545455  -0.0909091), wk =   0.0721262
        k(   46) = (   0.5454545  -0.3636364   0.0000000), wk =   0.0360631
        k(   47) = (   0.0000000   0.1818182   0.7272727), wk =   0.0360631
        k(   48) = (   0.9090909  -0.7272727  -0.1818182), wk =   0.0721262
        k(   49) = (   0.8181818  -0.6363636  -0.0909091), wk =   0.0721262
        k(   50) = (   0.7272727  -0.5454545   0.0000000), wk =   0.0360631
        k(   51) = (   1.0000000  -0.8181818  -0.0909091), wk =   0.0360631
        k(   52) = (   0.9090909  -0.7272727   0.0000000), wk =   0.0360631
        k(   53) = (   1.0000000  -0.6363636  -0.2727273), wk =   0.0360631
        k(   54) = (   0.9090909  -0.5454545  -0.1818182), wk =   0.0721262
        k(   55) = (   1.0000000  -0.6363636  -0.0909091), wk =   0.0360631
        k(   56) = (   0.9090909  -0.5454545   0.0000000), wk =   0.0360631

     Dense  grid:    29627 G-vectors     FFT dimensions: (  45,  45,  45)

     Smooth grid:    22075 G-vectors     FFT dimensions: (  40,  40,  40)

     Estimated max dynamical RAM per process >     144.87 MB

     Check: negative core charge=   -0.000001

     Initial potential from superposition of free atoms

     starting charge   15.99370, renormalised to   16.00000
     Starting wfcs are    9 randomized atomic wfcs +    3 random wfcs
     Checking if some PAW data can be deallocated... 

     total cpu time spent up to now is       13.0 secs

     Self-consistent Calculation

     iteration #  1     ecut=    66.00 Ry     beta= 0.70
     Davidson diagonalization with overlap
     ethr =  1.00E-02,  avg # of iterations =  6.2

     Threshold (ethr) on eigenvalues was too large:
     Diagonalizing with lowered threshold

     Davidson diagonalization with overlap
     ethr =  3.23E-04,  avg # of iterations =  1.5

     total cpu time spent up to now is       44.8 secs

     total energy              =    -188.82993105 Ry
     Harris-Foulkes estimate   =    -188.86109620 Ry
     estimated scf accuracy    <       0.05087268 Ry

     iteration #  2     ecut=    66.00 Ry     beta= 0.70
     Davidson diagonalization with overlap
     ethr =  3.18E-04,  avg # of iterations =  2.1

     total cpu time spent up to now is       60.1 secs

     total energy              =    -188.84353890 Ry
     Harris-Foulkes estimate   =    -188.85031356 Ry
     estimated scf accuracy    <       0.01241903 Ry

     iteration #  3     ecut=    66.00 Ry     beta= 0.70
     Davidson diagonalization with overlap
     ethr =  7.76E-05,  avg # of iterations =  2.4

     total cpu time spent up to now is       74.9 secs

     total energy              =    -188.84636892 Ry
     Harris-Foulkes estimate   =    -188.84624877 Ry
     estimated scf accuracy    <       0.00026387 Ry

     iteration #  4     ecut=    66.00 Ry     beta= 0.70
     Davidson diagonalization with overlap
     ethr =  1.65E-06,  avg # of iterations =  4.0

     total cpu time spent up to now is       93.7 secs

     total energy              =    -188.84642110 Ry
     Harris-Foulkes estimate   =    -188.84641902 Ry
     estimated scf accuracy    <       0.00000107 Ry

     iteration #  5     ecut=    66.00 Ry     beta= 0.70
     Davidson diagonalization with overlap
     ethr =  6.67E-09,  avg # of iterations =  3.2

     total cpu time spent up to now is      111.4 secs

     total energy              =    -188.84642232 Ry
     Harris-Foulkes estimate   =    -188.84642225 Ry
     estimated scf accuracy    <       0.00000004 Ry

     iteration #  6     ecut=    66.00 Ry     beta= 0.70
     Davidson diagonalization with overlap
     ethr =  2.37E-10,  avg # of iterations =  2.4

     total cpu time spent up to now is      126.9 secs

     End of self-consistent calculation

          k = 0.0000 0.0000 0.0000 (  2733 PWs)   bands (ev):

   -47.9543 -19.8639 -19.8639 -19.8639 -11.6954   0.9613   0.9613   0.9613
     6.0631  11.9990  11.9990  11.9990

          k =-0.0909 0.0909 0.0909 (  2728 PWs)   bands (ev):

   -47.9542 -19.8661 -19.8640 -19.8640 -11.6702   0.7550   0.9392   0.9392
     6.3397  11.6847  12.1089  12.1089

          k =-0.1818 0.1818 0.1818 (  2740 PWs)   bands (ev):

   -47.9540 -19.8727 -19.8645 -19.8645 -11.6017   0.2721   0.8810   0.8810
     7.0000  11.1640  12.2992  12.2992

          k =-0.2727 0.2727 0.2727 (  2728 PWs)   bands (ev):

   -47.9538 -19.8805 -19.8650 -19.8650 -11.5094  -0.2621   0.8071   0.8071
     7.6937  10.9207  12.2372  12.2372

          k =-0.3636 0.3636 0.3636 (  2740 PWs)   bands (ev):

   -47.9536 -19.8880 -19.8657 -19.8657 -11.4220  -0.6926   0.7413   0.7413
     8.1007  11.1411  12.0259  12.0259

          k =-0.4545 0.4545 0.4545 (  2758 PWs)   bands (ev):

   -47.9535 -19.8924 -19.8663 -19.8663 -11.3687  -0.9295   0.7032   0.7032
     8.2187  11.5208  11.8863  11.8863

          k = 0.0000 0.0000 0.1818 (  2725 PWs)   bands (ev):

   -47.9542 -19.8659 -19.8645 -19.8645 -11.6622   0.7380   0.9082   0.9082
     6.4304  11.5193  12.1931  12.1931

          k =-0.0909 0.0909 0.2727 (  2746 PWs)   bands (ev):

   -47.9541 -19.8709 -19.8653 -19.8649 -11.6091   0.3805   0.8434   0.8601
     6.9634  11.0648  12.3540  12.4159

          k =-0.1818 0.1818 0.3636 (  2740 PWs)   bands (ev):

   -47.9538 -19.8780 -19.8660 -19.8653 -11.5259  -0.1071   0.7670   0.7851
     7.6699  10.7500  12.1087  12.4712

          k =-0.2727 0.2727 0.4545 (  2735 PWs)   bands (ev):

   -47.9536 -19.8852 -19.8665 -19.8659 -11.4378  -0.5461   0.6957   0.7034
     8.2044  10.8439  11.7627  12.2916

          k =-0.3636 0.3636 0.5455 (  2745 PWs)   bands (ev):

   -47.9535 -19.8904 -19.8669 -19.8667 -11.3735  -0.8311   0.6203   0.6711
     8.4109  11.2047  11.6306  12.1000

          k = 0.5455-0.5455-0.3636 (  2751 PWs)   bands (ev):

   -47.9535 -19.8919 -19.8675 -19.8666 -11.3556  -0.9055   0.5814   0.6789
     8.4470  11.3093  11.6908  12.0194

          k = 0.4545-0.4545-0.2727 (  2748 PWs)   bands (ev):

   -47.9535 -19.8891 -19.8676 -19.8659 -11.3905  -0.7557   0.5907   0.7247
     8.3833  11.1489  11.6637  12.0887

          k = 0.3636-0.3636-0.1818 (  2747 PWs)   bands (ev):

   -47.9537 -19.8830 -19.8672 -19.8652 -11.4657  -0.4118   0.6476   0.7956
     8.0751  10.8197  11.9128  12.2985

          k = 0.2727-0.2727-0.0909 (  2741 PWs)   bands (ev):

   -47.9539 -19.8757 -19.8664 -19.8643 -11.5553   0.0503   0.7403   0.8706
     7.4369  10.8943  12.1995  12.4945

          k = 0.1818-0.1818-0.0000 (  2733 PWs)   bands (ev):

   -47.9541 -19.8694 -19.8652 -19.8639 -11.6309   0.4982   0.8502   0.9249
     6.7447  11.3030  12.2548  12.2778

          k = 0.0000 0.0000 0.3636 (  2738 PWs)   bands (ev):

   -47.9540 -19.8718 -19.8662 -19.8662 -11.5754   0.2580   0.7716   0.7716
     7.3073  10.6500  12.4812  12.7407

          k =-0.0909 0.0909 0.4545 (  2732 PWs)   bands (ev):

   -47.9538 -19.8762 -19.8672 -19.8670 -11.5102  -0.0647   0.6820   0.6905
     7.8954  10.3003  11.8745  12.9754

          k =-0.1818 0.1818 0.5455 (  2754 PWs)   bands (ev):

   -47.9536 -19.8823 -19.8681 -19.8681 -11.4331  -0.4089   0.5555   0.6253
     8.4945  10.2615  11.3772  12.8740

          k =-0.2727 0.2727 0.6364 (  2744 PWs)   bands (ev):

   -47.9535 -19.8868 -19.8692 -19.8681 -11.3685  -0.6610   0.4170   0.5950
     8.8348  10.5792  11.1567  12.6440

          k = 0.6364-0.6364-0.2727 (  2739 PWs)   bands (ev):

   -47.9534 -19.8887 -19.8705 -19.8675 -11.3384  -0.7624   0.3128   0.6076
     8.9702  10.6987  11.3597  12.4745

          k = 0.5455-0.5455-0.1818 (  2736 PWs)   bands (ev):

   -47.9534 -19.8876 -19.8711 -19.8666 -11.3533  -0.6973   0.2824   0.6598
     8.9958  10.8346  11.1702  12.4380

          k = 0.4545-0.4545-0.0909 (  2742 PWs)   bands (ev):

   -47.9536 -19.8842 -19.8708 -19.8656 -11.4080  -0.4944   0.3513   0.7370
     8.7596  10.6799  11.2479  12.5583

          k = 0.3636-0.3636 0.0000 (  2736 PWs)   bands (ev):

   -47.9537 -19.8798 -19.8688 -19.8647 -11.4835  -0.2212   0.5222   0.8161
     8.1312  10.6340  11.7539  12.8065

          k = 0.0000 0.0000 0.5455 (  2754 PWs)   bands (ev):

   -47.9537 -19.8777 -19.8687 -19.8687 -11.4670  -0.2062   0.6039   0.6039
     8.2366   9.8744  11.6087  13.5598

          k =-0.0909 0.0909 0.6364 (  2745 PWs)   bands (ev):

   -47.9535 -19.8808 -19.8697 -19.8695 -11.4091  -0.4106   0.4848   0.5345
     8.6346   9.6788  11.3509  13.7129

          k =-0.1818 0.1818 0.7273 (  2739 PWs)   bands (ev):

   -47.9534 -19.8834 -19.8716 -19.8698 -11.3549  -0.5509   0.2848   0.5019
     8.9742   9.8533  11.1751  13.4701

          k = 0.7273-0.7273-0.1818 (  2743 PWs)   bands (ev):

   -47.9533 -19.8846 -19.8741 -19.8693 -11.3222  -0.5761   0.0612   0.5150
     9.2302  10.1905  11.1818  13.1858

          k = 0.6364-0.6364-0.0909 (  2743 PWs)   bands (ev):

   -47.9533 -19.8844 -19.8756 -19.8682 -11.3219  -0.5179  -0.0690   0.5703
     9.4970  10.3549  11.0764  12.9658

          k = 0.5455-0.5455 0.0000 (  2732 PWs)   bands (ev):

   -47.9534 -19.8842 -19.8743 -19.8666 -11.3542  -0.5030   0.0519   0.6525
     9.4303  10.6417  10.7154  12.7933

          k = 0.0000 0.0000 0.7273 (  2750 PWs)   bands (ev):

   -47.9534 -19.8817 -19.8708 -19.8708 -11.3733  -0.5248   0.4595   0.4595
     8.6155   9.3268  11.5917  14.5558

          k =-0.0909 0.0909 0.8182 (  2744 PWs)   bands (ev):

   -47.9533 -19.8829 -19.8722 -19.8712 -11.3369  -0.6024   0.3332   0.4218
     8.7066   9.2853  11.7394  14.5058

          k = 0.8182-0.8182-0.0909 (  2744 PWs)   bands (ev):

   -47.9533 -19.8825 -19.8753 -19.8708 -11.3120  -0.5619   0.0806   0.4314
     8.9353   9.6051  11.6923  14.0517

          k = 0.7273-0.7273 0.0000 (  2748 PWs)   bands (ev):

   -47.9533 -19.8800 -19.8797 -19.8697 -11.3064  -0.3947  -0.2143   0.4858
     9.2699  10.0789  11.3980  13.5301

          k = 0.0000 0.0000 0.9091 (  2754 PWs)   bands (ev):

   -47.9533 -19.8836 -19.8721 -19.8721 -11.3206  -0.6762   0.3777   0.3777
     8.5040   9.0468  12.1704  15.5448

          k = 0.9091-0.9091-0.0000 (  2746 PWs)   bands (ev):

   -47.9532 -19.8834 -19.8731 -19.8719 -11.3112  -0.6595   0.2758   0.3811
     8.6101   9.1508  12.1555  14.9397

          k = 0.0000 0.1818 0.3636 (  2747 PWs)   bands (ev):

   -47.9539 -19.8749 -19.8670 -19.8652 -11.5496   0.0816   0.7013   0.8221
     7.5323  10.6832  12.1435  12.7830

          k =-0.0909 0.2727 0.4545 (  2743 PWs)   bands (ev):

   -47.9537 -19.8806 -19.8685 -19.8656 -11.4699  -0.2870   0.5580   0.7546
     8.2185  10.5034  11.6438  12.7296

          k =-0.1818 0.3636 0.5455 (  2746 PWs)   bands (ev):

   -47.9535 -19.8861 -19.8693 -19.8665 -11.3947  -0.6053   0.4552   0.6786
     8.6819  10.7311  11.2622  12.4886

          k = 0.7273-0.5455-0.3636 (  2745 PWs)   bands (ev):

   -47.9534 -19.8893 -19.8696 -19.8672 -11.3491  -0.7865   0.4031   0.6291
     8.8259  10.8797  11.3717  12.3370

          k = 0.0000 0.1818 0.5455 (  2746 PWs)   bands (ev):

   -47.9536 -19.8797 -19.8694 -19.8675 -11.4489  -0.2903   0.5192   0.6402
     8.4403  10.0363  11.4169  13.3358

          k =-0.0909 0.2727 0.6364 (  2744 PWs)   bands (ev):

   -47.9535 -19.8833 -19.8710 -19.8682 -11.3844  -0.4920   0.3496   0.5665
     8.9796  10.0908  11.0082  13.1738

          k = 0.8182-0.6364-0.2727 (  2742 PWs)   bands (ev):

   -47.9534 -19.8855 -19.8723 -19.8689 -11.3377  -0.6103   0.1954   0.5227
     9.2756  10.3569  10.9382  12.9133

          k = 0.7273-0.5455-0.1818 (  2735 PWs)   bands (ev):

   -47.9533 -19.8860 -19.8732 -19.8685 -11.3247  -0.6246   0.1034   0.5365
     9.4348  10.3598  11.1188  12.7483

          k = 0.6364-0.4545-0.0909 (  2737 PWs)   bands (ev):

   -47.9534 -19.8849 -19.8732 -19.8675 -11.3497  -0.5556   0.1332   0.5996
     9.4022  10.5465  10.7357  12.8007

          k = 0.5455-0.3636 0.0000 (  2740 PWs)   bands (ev):

   -47.9535 -19.8830 -19.8715 -19.8663 -11.4042  -0.4395   0.3058   0.6846
     8.9291  10.4031  11.0582  12.8949

          k = 0.0000 0.1818 0.7273 (  2744 PWs)   bands (ev):

   -47.9534 -19.8823 -19.8716 -19.8703 -11.3629  -0.5215   0.3629   0.4554
     8.8863   9.5554  11.3044  13.9191

          k = 0.9091-0.7273-0.1818 (  2746 PWs)   bands (ev):

   -47.9533 -19.8828 -19.8738 -19.8710 -11.3250  -0.5409   0.1532   0.4069
     9.1639   9.7747  11.2354  13.5610

          k = 0.8182-0.6364-0.0909 (  2734 PWs)   bands (ev):

   -47.9532 -19.8819 -19.8767 -19.8702 -11.3079  -0.4436  -0.1089   0.4291
     9.4562  10.1239  11.1663  13.0725

          k = 0.7273-0.5455 0.0000 (  2742 PWs)   bands (ev):

   -47.9533 -19.8824 -19.8770 -19.8690 -11.3172  -0.4105  -0.1607   0.5032
     9.7959  10.2209  10.8447  12.9325

          k = 1.0000-0.8182-0.0909 (  2736 PWs)   bands (ev):

   -47.9532 -19.8828 -19.8728 -19.8722 -11.3150  -0.6151   0.2744   0.3364
     8.7892   9.3045  11.8863  14.2468

          k = 0.9091-0.7273 0.0000 (  2735 PWs)   bands (ev):

   -47.9532 -19.8815 -19.8756 -19.8718 -11.3043  -0.5243   0.0556   0.3479
     9.0822   9.6597  11.6741  13.5115

          k = 1.0000-0.6364-0.2727 (  2741 PWs)   bands (ev):

   -47.9533 -19.8831 -19.8739 -19.8694 -11.3392  -0.4989   0.1220   0.4690
     9.5617  10.1428  10.6159  13.1823

          k = 0.9091-0.5455-0.1818 (  2732 PWs)   bands (ev):

   -47.9533 -19.8824 -19.8756 -19.8706 -11.3120  -0.4487  -0.0525   0.3919
     9.8862  10.1628  10.7152  12.8132

          k = 1.0000-0.6364-0.0909 (  2735 PWs)   bands (ev):

   -47.9532 -19.8810 -19.8752 -19.8728 -11.3043  -0.4450   0.0187   0.2704
     9.4782   9.9860  11.1458  12.9244

          k = 0.9091-0.5455 0.0000 (  2742 PWs)   bands (ev):

   -47.9532 -19.8786 -19.8785 -19.8726 -11.2995  -0.2792  -0.2045   0.2737
     9.7486  10.3406  10.8671  12.4753

     the Fermi energy is     3.7237 ev

!    total energy              =    -188.84642234 Ry
     Harris-Foulkes estimate   =    -188.84642234 Ry
     estimated scf accuracy    <          7.6E-10 Ry

     total all-electron energy =     -1248.133437 Ry

     The total energy is the sum of the following terms:

     one-electron contribution =     -80.91287184 Ry
     hartree contribution      =      47.14050560 Ry
     xc contribution           =     -25.67389909 Ry
     ewald contribution        =     -68.79919271 Ry
     one-center paw contrib.   =     -60.60096430 Ry
     smearing contrib. (-TS)   =       0.00000000 Ry

     convergence has been achieved in   6 iterations

     Forces acting on atoms (cartesian axes, Ry/au):

     atom    1 type  2   force =    -0.00000000    0.00000000   -0.00000000
     atom    2 type  1   force =    -0.00000000    0.00000000    0.00000000

     Total force =     0.000000     Total SCF correction =     0.000000


     Computing stress (Cartesian axis) and pressure

          total   stress  (Ry/bohr**3)                   (kbar)     P=    1.13
   0.00000766  -0.00000000   0.00000000          1.13     -0.00      0.00
   0.00000000   0.00000766   0.00000000          0.00      1.13      0.00
  -0.00000000   0.00000000   0.00000766         -0.00      0.00      1.13


     Writing output data file halite.save/

     init_run     :      8.34s CPU      8.48s WALL (       1 calls)
     electrons    :    113.06s CPU    113.99s WALL (       1 calls)
     forces       :      1.76s CPU      1.80s WALL (       1 calls)
     stress       :      3.69s CPU      3.83s WALL (       1 calls)

     Called by init_run:
     wfcinit      :      4.59s CPU      4.64s WALL (       1 calls)
     potinit      :      0.78s CPU      0.79s WALL (       1 calls)
     hinit0       :      2.66s CPU      2.67s WALL (       1 calls)

     Called by electrons:
     c_bands      :     87.86s CPU     88.18s WALL (       7 calls)
     sum_band     :     19.20s CPU     19.56s WALL (       7 calls)
     v_of_rho     :      0.77s CPU      0.78s WALL (       7 calls)
     newd         :      1.81s CPU      2.09s WALL (       7 calls)
     PAW_pot      :      4.21s CPU      4.22s WALL (       7 calls)
     mix_rho      :      0.08s CPU      0.08s WALL (       7 calls)

     Called by c_bands:
     init_us_2    :      1.68s CPU      1.68s WALL (     952 calls)
     cegterg      :     85.59s CPU     85.90s WALL (     392 calls)

     Called by sum_band:
     sum_band:bec :      0.02s CPU      0.02s WALL (     392 calls)
     addusdens    :      2.32s CPU      2.59s WALL (       7 calls)

     Called by *egterg:
     h_psi        :     69.39s CPU     69.68s WALL (    1673 calls)
     s_psi        :      4.62s CPU      4.64s WALL (    1673 calls)
     g_psi        :      0.18s CPU      0.18s WALL (    1225 calls)
     cdiaghg      :      1.16s CPU      1.17s WALL (    1561 calls)

     Called by h_psi:
     h_psi:pot    :     69.26s CPU     69.55s WALL (    1673 calls)
     h_psi:calbec :      5.03s CPU      5.06s WALL (    1673 calls)
     vloc_psi     :     59.54s CPU     59.80s WALL (    1673 calls)
     add_vuspsi   :      4.67s CPU      4.68s WALL (    1673 calls)

     General routines
     calbec       :      8.07s CPU      8.11s WALL (    2345 calls)
     fft          :      0.55s CPU      0.56s WALL (     115 calls)
     ffts         :      0.07s CPU      0.07s WALL (      14 calls)
     fftw         :     65.15s CPU     65.47s WALL (   31256 calls)
     interpolate  :      0.09s CPU      0.09s WALL (       7 calls)

     Parallel routines

     PWSCF        :   2m11.42s CPU   2m13.37s WALL


   This run was terminated on:   6: 8:43  18Feb2020            

=------------------------------------------------------------------------------=
   JOB DONE.
=------------------------------------------------------------------------------=
