     Message from routine get_command_line:
     unexpected argument # 2     :-input

     Program PWSCF v.6.4.1 starts on 18Feb2020 at  9:32:24 

     This program is part of the open-source Quantum ESPRESSO suite
     for quantum simulation of materials; please cite
         "P. Giannozzi et al., J. Phys.:Condens. Matter 21 395502 (2009);
         "P. Giannozzi et al., J. Phys.:Condens. Matter 29 465901 (2017);
          URL http://www.quantum-espresso.org", 
     in publications or presentations arising from this work. More details at
     http://www.quantum-espresso.org/quote

     Parallel version (MPI), running on     1 processors

     MPI processes distributed on     1 nodes
     Waiting for input...
     Reading input from standard input

     Current dimensions of program PWSCF are:
     Max number of different atomic species (ntypx) = 10
     Max number of k-points (npk) =  40000
     Max angular momentum in pseudopotentials (lmaxx) =  3
     Message from routine volume:
     axis vectors are left-handed

     IMPORTANT: XC functional enforced from input :
     Exchange-correlation      = PBE ( 1  4  3  4 0 0)
     Any further DFT definition will be discarded
     Please, verify this is what you really want

               file Na.pbe-spn-kjpaw_psl.1.0.0.UPF: wavefunction(s)  2P renormalized
               file Cl.pbe-n-kjpaw_psl.1.0.0.UPF: wavefunction(s)  3S 3P renormalized

     Subspace diagonalization in iterative solution of the eigenvalue problem:
     a serial algorithm will be used

     Message from routine setup:
     DEPRECATED: symmetry with ibrav=0, use correct ibrav instead

     G-vector sticks info
     --------------------
     sticks:   dense  smooth     PW     G-vecs:    dense   smooth      PW
     Sum        2107    1417    421                64071    35053    5577



     bravais-lattice index     =            0
     lattice parameter (alat)  =      10.6591  a.u.
     unit-cell volume          =     302.7633 (a.u.)^3
     number of atoms/cell      =            2
     number of atomic types    =            2
     number of electrons       =        16.00
     number of Kohn-Sham states=           12
     kinetic-energy cutoff     =      90.0000  Ry
     charge density cutoff     =     540.0000  Ry
     convergence threshold     =      1.0E-08
     mixing beta               =       0.7000
     number of iterations used =            8  plain     mixing
     Exchange-correlation      = PBE ( 1  4  3  4 0 0)

     celldm(1)=  10.659114  celldm(2)=   0.000000  celldm(3)=   0.000000
     celldm(4)=   0.000000  celldm(5)=   0.000000  celldm(6)=   0.000000

     crystal axes: (cart. coord. in units of alat)
               a(1) = (   0.500000   0.500000   0.000000 )  
               a(2) = (   0.500000   0.000000   0.500000 )  
               a(3) = (   0.000000   0.500000   0.500000 )  

     reciprocal axes: (cart. coord. in units 2 pi/alat)
               b(1) = (  1.000000  1.000000 -1.000000 )  
               b(2) = (  1.000000 -1.000000  1.000000 )  
               b(3) = ( -1.000000  1.000000  1.000000 )  


     PseudoPot. # 1 for Na read from file:
     ./Na.pbe-spn-kjpaw_psl.1.0.0.UPF
     MD5 check sum: 05b4deb74e3932c23ab016979dc8b5d4
     Pseudo is Projector augmented-wave + core cor, Zval =  9.0
     Generated using "atomic" code by A. Dal Corso v.6.3
     Shape of augmentation charge: PSQ
     Using radial grid of 1121 points,  4 beta functions with: 
                l(1) =   0
                l(2) =   0
                l(3) =   1
                l(4) =   1
     Q(r) pseudized with 0 coefficients 


     PseudoPot. # 2 for Cl read from file:
     ./Cl.pbe-n-kjpaw_psl.1.0.0.UPF
     MD5 check sum: 530da96d25dcb7781b0586ca00827062
     Pseudo is Projector augmented-wave + core cor, Zval =  7.0
     Generated using "atomic" code by A. Dal Corso v.6.3
     Shape of augmentation charge: PSQ
     Using radial grid of 1157 points,  6 beta functions with: 
                l(1) =   0
                l(2) =   0
                l(3) =   1
                l(4) =   1
                l(5) =   2
                l(6) =   2
     Q(r) pseudized with 0 coefficients 


     atomic species   valence    mass     pseudopotential
        Na             9.00    22.98900     Na( 1.00)
        Cl             7.00    35.45150     Cl( 1.00)

     48 Sym. Ops., with inversion, found



   Cartesian axes

     site n.     atom                  positions (alat units)
         1           Cl  tau(   1) = (   0.5000000   0.5000000   0.5000000  )
         2           Na  tau(   2) = (   0.0000000   0.0000000   0.0000000  )

     number of k points=    20  Marzari-Vanderbilt smearing, width (Ry)=  0.0050
                       cart. coord. in units 2pi/alat
        k(    1) = (   0.0000000   0.0000000   0.0000000), wk =   0.0058309
        k(    2) = (  -0.1428571   0.1428571   0.1428571), wk =   0.0466472
        k(    3) = (  -0.2857143   0.2857143   0.2857143), wk =   0.0466472
        k(    4) = (  -0.4285714   0.4285714   0.4285714), wk =   0.0466472
        k(    5) = (   0.0000000   0.0000000   0.2857143), wk =   0.0349854
        k(    6) = (  -0.1428571   0.1428571   0.4285714), wk =   0.1399417
        k(    7) = (  -0.2857143   0.2857143   0.5714286), wk =   0.1399417
        k(    8) = (   0.5714286  -0.5714286  -0.2857143), wk =   0.1399417
        k(    9) = (   0.4285714  -0.4285714  -0.1428571), wk =   0.1399417
        k(   10) = (   0.2857143  -0.2857143  -0.0000000), wk =   0.0699708
        k(   11) = (   0.0000000   0.0000000   0.5714286), wk =   0.0349854
        k(   12) = (  -0.1428571   0.1428571   0.7142857), wk =   0.1399417
        k(   13) = (   0.7142857  -0.7142857  -0.1428571), wk =   0.1399417
        k(   14) = (   0.5714286  -0.5714286   0.0000000), wk =   0.0699708
        k(   15) = (   0.0000000   0.0000000   0.8571429), wk =   0.0349854
        k(   16) = (   0.8571429  -0.8571429  -0.0000000), wk =   0.0699708
        k(   17) = (   0.0000000   0.2857143   0.5714286), wk =   0.1399417
        k(   18) = (   0.8571429  -0.5714286  -0.2857143), wk =   0.2798834
        k(   19) = (   1.0000000  -0.7142857  -0.1428571), wk =   0.1399417
        k(   20) = (   0.8571429  -0.5714286   0.0000000), wk =   0.1399417

     Dense  grid:    64071 G-vectors     FFT dimensions: (  60,  60,  60)

     Smooth grid:    35053 G-vectors     FFT dimensions: (  45,  45,  45)

     Estimated max dynamical RAM per process >     264.55 MB

     Initial potential from superposition of free atoms

     starting charge   15.99370, renormalised to   16.00000
     Starting wfcs are    9 randomized atomic wfcs +    3 random wfcs
     Checking if some PAW data can be deallocated... 

     total cpu time spent up to now is       12.8 secs

     Self-consistent Calculation

     iteration #  1     ecut=    90.00 Ry     beta= 0.70
     Davidson diagonalization with overlap
     ethr =  1.00E-02,  avg # of iterations =  6.0

     Threshold (ethr) on eigenvalues was too large:
     Diagonalizing with lowered threshold

     Davidson diagonalization with overlap
     ethr =  3.44E-04,  avg # of iterations =  1.2

     total cpu time spent up to now is       32.3 secs

     total energy              =    -188.83193714 Ry
     Harris-Foulkes estimate   =    -188.86411769 Ry
     estimated scf accuracy    <       0.05206649 Ry

     iteration #  2     ecut=    90.00 Ry     beta= 0.70
     Davidson diagonalization with overlap
     ethr =  3.25E-04,  avg # of iterations =  2.0

     total cpu time spent up to now is       42.2 secs

     total energy              =    -188.84685473 Ry
     Harris-Foulkes estimate   =    -188.85416173 Ry
     estimated scf accuracy    <       0.01349507 Ry

     iteration #  3     ecut=    90.00 Ry     beta= 0.70
     Davidson diagonalization with overlap
     ethr =  8.43E-05,  avg # of iterations =  2.0

     total cpu time spent up to now is       52.0 secs

     total energy              =    -188.84987584 Ry
     Harris-Foulkes estimate   =    -188.84974703 Ry
     estimated scf accuracy    <       0.00026190 Ry

     iteration #  4     ecut=    90.00 Ry     beta= 0.70
     Davidson diagonalization with overlap
     ethr =  1.64E-06,  avg # of iterations =  4.2

     total cpu time spent up to now is       64.1 secs

     total energy              =    -188.84993400 Ry
     Harris-Foulkes estimate   =    -188.84993238 Ry
     estimated scf accuracy    <       0.00000176 Ry

     iteration #  5     ecut=    90.00 Ry     beta= 0.70
     Davidson diagonalization with overlap
     ethr =  1.10E-08,  avg # of iterations =  3.0

     total cpu time spent up to now is       75.6 secs

     total energy              =    -188.84993534 Ry
     Harris-Foulkes estimate   =    -188.84993516 Ry
     estimated scf accuracy    <       0.00000010 Ry

     iteration #  6     ecut=    90.00 Ry     beta= 0.70
     Davidson diagonalization with overlap
     ethr =  6.36E-10,  avg # of iterations =  2.8

     total cpu time spent up to now is       85.7 secs

     End of self-consistent calculation

          k = 0.0000 0.0000 0.0000 (  4381 PWs)   bands (ev):

   -47.9567 -19.8694 -19.8694 -19.8694 -11.6944   0.9620   0.9620   0.9620
     6.0653  12.0014  12.0014  12.0015

          k =-0.1429 0.1429 0.1429 (  4390 PWs)   bands (ev):

   -47.9565 -19.8750 -19.8698 -19.8698 -11.6344   0.4982   0.9099   0.9099
     6.6929  11.3765  12.2323  12.2323

          k =-0.2857 0.2857 0.2857 (  4357 PWs)   bands (ev):

   -47.9562 -19.8872 -19.8707 -19.8707 -11.4950  -0.3315   0.7974   0.7974
     7.7748  10.9261  12.2069  12.2069

          k =-0.4286 0.4286 0.4286 (  4383 PWs)   bands (ev):

   -47.9559 -19.8970 -19.8714 -19.8714 -11.3781  -0.8837   0.7113   0.7113
     8.2026  11.4333  11.9097  11.9097

          k = 0.0000 0.0000 0.2857 (  4384 PWs)   bands (ev):

   -47.9565 -19.8746 -19.8709 -19.8709 -11.6164   0.4758   0.8380   0.8380
     6.8975  11.0292  12.4690  12.4690

          k =-0.1429 0.1429 0.4286 (  4372 PWs)   bands (ev):

   -47.9562 -19.8832 -19.8723 -19.8718 -11.5080  -0.1198   0.7119   0.7163
     7.8764  10.4869  11.8995  12.7254

          k =-0.2857 0.2857 0.5714 (  4374 PWs)   bands (ev):

   -47.9559 -19.8927 -19.8733 -19.8728 -11.3865  -0.6721   0.5373   0.6369
     8.6010  10.7807  11.3431  12.4268

          k = 0.5714-0.5714-0.2857 (  4354 PWs)   bands (ev):

   -47.9558 -19.8957 -19.8747 -19.8722 -11.3468  -0.8266   0.4284   0.6540
     8.7379  10.9900  11.4953  12.2275

          k = 0.4286-0.4286-0.1429 (  4357 PWs)   bands (ev):

   -47.9560 -19.8901 -19.8747 -19.8708 -11.4215  -0.5145   0.4752   0.7563
     8.5033  10.7720  11.4895  12.3969

          k = 0.2857-0.2857-0.0000 (  4369 PWs)   bands (ev):

   -47.9563 -19.8808 -19.8726 -19.8698 -11.5498   0.0605   0.6879   0.8719
     7.5089  10.8400  12.1317  12.6859

          k = 0.0000 0.0000 0.5714 (  4364 PWs)   bands (ev):

   -47.9560 -19.8837 -19.8743 -19.8743 -11.4510  -0.2609   0.5814   0.5814
     8.3393   9.7836  11.5377  13.6930

          k =-0.1429 0.1429 0.7143 (  4368 PWs)   bands (ev):

   -47.9558 -19.8881 -19.8767 -19.8753 -11.3652  -0.5235   0.3480   0.4947
     8.8716   9.6770  11.2666  13.6898

          k = 0.7143-0.7143-0.1429 (  4360 PWs)   bands (ev):

   -47.9557 -19.8895 -19.8808 -19.8745 -11.3155  -0.5391  -0.0189   0.5145
     9.2911  10.1945  11.2212  13.2192

          k = 0.5714-0.5714 0.0000 (  4367 PWs)   bands (ev):

   -47.9558 -19.8896 -19.8807 -19.8726 -11.3412  -0.4926  -0.0169   0.6282
     9.5366  10.5188  10.7856  12.8473

          k = 0.0000 0.0000 0.8571 (  4336 PWs)   bands (ev):

   -47.9557 -19.8888 -19.8771 -19.8771 -11.3297  -0.6484   0.3938   0.3938
     8.5425   9.1014  12.0173  15.2874

          k = 0.8571-0.8571-0.0000 (  4346 PWs)   bands (ev):

   -47.9556 -19.8882 -19.8801 -19.8767 -11.3076  -0.6081   0.1574   0.4022
     8.7728   9.3646  11.9794  14.4716

          k = 0.0000 0.2857 0.5714 (  4383 PWs)   bands (ev):

   -47.9560 -19.8875 -19.8763 -19.8725 -11.4122  -0.4064   0.3808   0.6425
     8.8177  10.1778  11.1193  13.1308

          k = 0.8571-0.5714-0.2857 (  4374 PWs)   bands (ev):

   -47.9558 -19.8908 -19.8786 -19.8741 -11.3333  -0.5861   0.1364   0.5244
     9.4665  10.3730  10.8450  12.8401

          k = 1.0000-0.7143-0.1429 (  4338 PWs)   bands (ev):

   -47.9557 -19.8877 -19.8793 -19.8775 -11.3157  -0.5300   0.1590   0.3304
     9.2010   9.6955  11.3252  13.5016

          k = 0.8571-0.5714 0.0000 (  4364 PWs)   bands (ev):

   -47.9557 -19.8849 -19.8842 -19.8769 -11.3015  -0.2958  -0.2321   0.3481
     9.7004  10.2190  10.9868  12.6715

     the Fermi energy is     3.5142 ev

!    total energy              =    -188.84993538 Ry
     Harris-Foulkes estimate   =    -188.84993539 Ry
     estimated scf accuracy    <          2.3E-09 Ry

     total all-electron energy =     -1248.136950 Ry

     The total energy is the sum of the following terms:

     one-electron contribution =     -80.91606178 Ry
     hartree contribution      =      47.14327897 Ry
     xc contribution           =     -25.67418692 Ry
     ewald contribution        =     -68.79919271 Ry
     one-center paw contrib.   =     -60.60377294 Ry
     smearing contrib. (-TS)   =       0.00000000 Ry

     convergence has been achieved in   6 iterations

     Forces acting on atoms (cartesian axes, Ry/au):

     atom    1 type  2   force =     0.00000000    0.00000000    0.00000000
     atom    2 type  1   force =     0.00000000    0.00000000   -0.00000000

     Total force =     0.000000     Total SCF correction =     0.000000


     Computing stress (Cartesian axis) and pressure

          total   stress  (Ry/bohr**3)                   (kbar)     P=    7.70
   0.00005235  -0.00000000  -0.00000000          7.70     -0.00     -0.00
  -0.00000000   0.00005235  -0.00000000         -0.00      7.70     -0.00
  -0.00000000  -0.00000000   0.00005235         -0.00     -0.00      7.70


     Writing output data file halite.save/

     init_run     :      7.81s CPU      8.08s WALL (       1 calls)
     electrons    :     70.90s CPU     72.94s WALL (       1 calls)
     forces       :      2.09s CPU      2.19s WALL (       1 calls)
     stress       :      4.40s CPU      4.81s WALL (       1 calls)

     Called by init_run:
     wfcinit      :      2.47s CPU      2.48s WALL (       1 calls)
     potinit      :      1.02s CPU      1.04s WALL (       1 calls)
     hinit0       :      3.65s CPU      3.78s WALL (       1 calls)

     Called by electrons:
     c_bands      :     49.18s CPU     49.60s WALL (       7 calls)
     sum_band     :     12.98s CPU     13.85s WALL (       7 calls)
     v_of_rho     :      1.94s CPU      1.98s WALL (       7 calls)
     newd         :      3.75s CPU      4.53s WALL (       7 calls)
     PAW_pot      :      4.15s CPU      4.17s WALL (       7 calls)
     mix_rho      :      0.20s CPU      0.21s WALL (       7 calls)

     Called by c_bands:
     init_us_2    :      0.94s CPU      0.95s WALL (     340 calls)
     cegterg      :     47.92s CPU     48.32s WALL (     140 calls)

     Called by sum_band:
     sum_band:bec :      0.01s CPU      0.01s WALL (     140 calls)
     addusdens    :      4.84s CPU      5.65s WALL (       7 calls)

     Called by *egterg:
     h_psi        :     39.10s CPU     39.41s WALL (     586 calls)
     s_psi        :      2.57s CPU      2.60s WALL (     586 calls)
     g_psi        :      0.09s CPU      0.10s WALL (     426 calls)
     cdiaghg      :      0.40s CPU      0.40s WALL (     546 calls)

     Called by h_psi:
     h_psi:pot    :     39.03s CPU     39.33s WALL (     586 calls)
     h_psi:calbec :      2.84s CPU      2.86s WALL (     586 calls)
     vloc_psi     :     33.63s CPU     33.90s WALL (     586 calls)
     add_vuspsi   :      2.55s CPU      2.57s WALL (     586 calls)

     General routines
     calbec       :      4.56s CPU      4.60s WALL (     826 calls)
     fft          :      1.50s CPU      1.50s WALL (     115 calls)
     ffts         :      0.09s CPU      0.09s WALL (      14 calls)
     fftw         :     35.21s CPU     35.49s WALL (   11022 calls)
     interpolate  :      0.11s CPU      0.11s WALL (       7 calls)

     Parallel routines

     PWSCF        :   1m29.95s CPU   1m32.95s WALL


   This run was terminated on:   9:33:57  18Feb2020            

=------------------------------------------------------------------------------=
   JOB DONE.
=------------------------------------------------------------------------------=
