     Message from routine get_command_line:
     unexpected argument # 2     :-input

     Program PWSCF v.6.4.1 starts on 18Feb2020 at  8:10:34 

     This program is part of the open-source Quantum ESPRESSO suite
     for quantum simulation of materials; please cite
         "P. Giannozzi et al., J. Phys.:Condens. Matter 21 395502 (2009);
         "P. Giannozzi et al., J. Phys.:Condens. Matter 29 465901 (2017);
          URL http://www.quantum-espresso.org", 
     in publications or presentations arising from this work. More details at
     http://www.quantum-espresso.org/quote

     Parallel version (MPI), running on     1 processors

     MPI processes distributed on     1 nodes
     Waiting for input...
     Reading input from standard input

     Current dimensions of program PWSCF are:
     Max number of different atomic species (ntypx) = 10
     Max number of k-points (npk) =  40000
     Max angular momentum in pseudopotentials (lmaxx) =  3
     Message from routine volume:
     axis vectors are left-handed

     IMPORTANT: XC functional enforced from input :
     Exchange-correlation      = PBE ( 1  4  3  4 0 0)
     Any further DFT definition will be discarded
     Please, verify this is what you really want

               file Na.pbe-spn-kjpaw_psl.1.0.0.UPF: wavefunction(s)  2P renormalized
               file Cl.pbe-n-kjpaw_psl.1.0.0.UPF: wavefunction(s)  3S 3P renormalized

     Subspace diagonalization in iterative solution of the eigenvalue problem:
     a serial algorithm will be used

     Message from routine setup:
     DEPRECATED: symmetry with ibrav=0, use correct ibrav instead

     G-vector sticks info
     --------------------
     sticks:   dense  smooth     PW     G-vecs:    dense   smooth      PW
     Sum        1891    1507    433                53977    38517    5961



     bravais-lattice index     =            0
     lattice parameter (alat)  =      10.6591  a.u.
     unit-cell volume          =     302.7633 (a.u.)^3
     number of atoms/cell      =            2
     number of atomic types    =            2
     number of electrons       =        16.00
     number of Kohn-Sham states=           12
     kinetic-energy cutoff     =      96.0000  Ry
     charge density cutoff     =     480.0000  Ry
     convergence threshold     =      1.0E-08
     mixing beta               =       0.7000
     number of iterations used =            8  plain     mixing
     Exchange-correlation      = PBE ( 1  4  3  4 0 0)

     celldm(1)=  10.659114  celldm(2)=   0.000000  celldm(3)=   0.000000
     celldm(4)=   0.000000  celldm(5)=   0.000000  celldm(6)=   0.000000

     crystal axes: (cart. coord. in units of alat)
               a(1) = (   0.500000   0.500000   0.000000 )  
               a(2) = (   0.500000   0.000000   0.500000 )  
               a(3) = (   0.000000   0.500000   0.500000 )  

     reciprocal axes: (cart. coord. in units 2 pi/alat)
               b(1) = (  1.000000  1.000000 -1.000000 )  
               b(2) = (  1.000000 -1.000000  1.000000 )  
               b(3) = ( -1.000000  1.000000  1.000000 )  


     PseudoPot. # 1 for Na read from file:
     ./Na.pbe-spn-kjpaw_psl.1.0.0.UPF
     MD5 check sum: 05b4deb74e3932c23ab016979dc8b5d4
     Pseudo is Projector augmented-wave + core cor, Zval =  9.0
     Generated using "atomic" code by A. Dal Corso v.6.3
     Shape of augmentation charge: PSQ
     Using radial grid of 1121 points,  4 beta functions with: 
                l(1) =   0
                l(2) =   0
                l(3) =   1
                l(4) =   1
     Q(r) pseudized with 0 coefficients 


     PseudoPot. # 2 for Cl read from file:
     ./Cl.pbe-n-kjpaw_psl.1.0.0.UPF
     MD5 check sum: 530da96d25dcb7781b0586ca00827062
     Pseudo is Projector augmented-wave + core cor, Zval =  7.0
     Generated using "atomic" code by A. Dal Corso v.6.3
     Shape of augmentation charge: PSQ
     Using radial grid of 1157 points,  6 beta functions with: 
                l(1) =   0
                l(2) =   0
                l(3) =   1
                l(4) =   1
                l(5) =   2
                l(6) =   2
     Q(r) pseudized with 0 coefficients 


     atomic species   valence    mass     pseudopotential
        Na             9.00    22.98900     Na( 1.00)
        Cl             7.00    35.45150     Cl( 1.00)

     48 Sym. Ops., with inversion, found



   Cartesian axes

     site n.     atom                  positions (alat units)
         1           Cl  tau(   1) = (   0.5000000   0.5000000   0.5000000  )
         2           Na  tau(   2) = (   0.0000000   0.0000000   0.0000000  )

     number of k points=    20  Marzari-Vanderbilt smearing, width (Ry)=  0.0050
                       cart. coord. in units 2pi/alat
        k(    1) = (   0.0000000   0.0000000   0.0000000), wk =   0.0058309
        k(    2) = (  -0.1428571   0.1428571   0.1428571), wk =   0.0466472
        k(    3) = (  -0.2857143   0.2857143   0.2857143), wk =   0.0466472
        k(    4) = (  -0.4285714   0.4285714   0.4285714), wk =   0.0466472
        k(    5) = (   0.0000000   0.0000000   0.2857143), wk =   0.0349854
        k(    6) = (  -0.1428571   0.1428571   0.4285714), wk =   0.1399417
        k(    7) = (  -0.2857143   0.2857143   0.5714286), wk =   0.1399417
        k(    8) = (   0.5714286  -0.5714286  -0.2857143), wk =   0.1399417
        k(    9) = (   0.4285714  -0.4285714  -0.1428571), wk =   0.1399417
        k(   10) = (   0.2857143  -0.2857143  -0.0000000), wk =   0.0699708
        k(   11) = (   0.0000000   0.0000000   0.5714286), wk =   0.0349854
        k(   12) = (  -0.1428571   0.1428571   0.7142857), wk =   0.1399417
        k(   13) = (   0.7142857  -0.7142857  -0.1428571), wk =   0.1399417
        k(   14) = (   0.5714286  -0.5714286   0.0000000), wk =   0.0699708
        k(   15) = (   0.0000000   0.0000000   0.8571429), wk =   0.0349854
        k(   16) = (   0.8571429  -0.8571429  -0.0000000), wk =   0.0699708
        k(   17) = (   0.0000000   0.2857143   0.5714286), wk =   0.1399417
        k(   18) = (   0.8571429  -0.5714286  -0.2857143), wk =   0.2798834
        k(   19) = (   1.0000000  -0.7142857  -0.1428571), wk =   0.1399417
        k(   20) = (   0.8571429  -0.5714286   0.0000000), wk =   0.1399417

     Dense  grid:    53977 G-vectors     FFT dimensions: (  54,  54,  54)

     Smooth grid:    38517 G-vectors     FFT dimensions: (  48,  48,  48)

     Estimated max dynamical RAM per process >     226.69 MB

     Check: negative core charge=   -0.000001

     Initial potential from superposition of free atoms

     starting charge   15.99370, renormalised to   16.00000
     Starting wfcs are    9 randomized atomic wfcs +    3 random wfcs
     Checking if some PAW data can be deallocated... 

     total cpu time spent up to now is       12.5 secs

     Self-consistent Calculation

     iteration #  1     ecut=    96.00 Ry     beta= 0.70
     Davidson diagonalization with overlap
     ethr =  1.00E-02,  avg # of iterations =  5.5

     Threshold (ethr) on eigenvalues was too large:
     Diagonalizing with lowered threshold

     Davidson diagonalization with overlap
     ethr =  3.39E-04,  avg # of iterations =  1.4

     total cpu time spent up to now is       30.3 secs

     total energy              =    -188.83261813 Ry
     Harris-Foulkes estimate   =    -188.86433170 Ry
     estimated scf accuracy    <       0.05150283 Ry

     iteration #  2     ecut=    96.00 Ry     beta= 0.70
     Davidson diagonalization with overlap
     ethr =  3.22E-04,  avg # of iterations =  2.0

     total cpu time spent up to now is       39.4 secs

     total energy              =    -188.84700709 Ry
     Harris-Foulkes estimate   =    -188.85404028 Ry
     estimated scf accuracy    <       0.01298047 Ry

     iteration #  3     ecut=    96.00 Ry     beta= 0.70
     Davidson diagonalization with overlap
     ethr =  8.11E-05,  avg # of iterations =  2.0

     total cpu time spent up to now is       48.5 secs

     total energy              =    -188.84993167 Ry
     Harris-Foulkes estimate   =    -188.84980821 Ry
     estimated scf accuracy    <       0.00026222 Ry

     iteration #  4     ecut=    96.00 Ry     beta= 0.70
     Davidson diagonalization with overlap
     ethr =  1.64E-06,  avg # of iterations =  4.2

     total cpu time spent up to now is       59.6 secs

     total energy              =    -188.84998697 Ry
     Harris-Foulkes estimate   =    -188.84998529 Ry
     estimated scf accuracy    <       0.00000152 Ry

     iteration #  5     ecut=    96.00 Ry     beta= 0.70
     Davidson diagonalization with overlap
     ethr =  9.48E-09,  avg # of iterations =  3.1

     total cpu time spent up to now is       70.3 secs

     total energy              =    -188.84998826 Ry
     Harris-Foulkes estimate   =    -188.84998805 Ry
     estimated scf accuracy    <       0.00000011 Ry

     iteration #  6     ecut=    96.00 Ry     beta= 0.70
     Davidson diagonalization with overlap
     ethr =  6.91E-10,  avg # of iterations =  2.5

     total cpu time spent up to now is       79.4 secs

     End of self-consistent calculation

          k = 0.0000 0.0000 0.0000 (  4909 PWs)   bands (ev):

   -47.9562 -19.8693 -19.8693 -19.8693 -11.6947   0.9617   0.9617   0.9617
     6.0647  12.0012  12.0012  12.0012

          k =-0.1429 0.1429 0.1429 (  4819 PWs)   bands (ev):

   -47.9561 -19.8748 -19.8697 -19.8697 -11.6347   0.4979   0.9097   0.9097
     6.6923  11.3761  12.2320  12.2320

          k =-0.2857 0.2857 0.2857 (  4807 PWs)   bands (ev):

   -47.9557 -19.8871 -19.8706 -19.8706 -11.4953  -0.3318   0.7972   0.7972
     7.7742  10.9255  12.2064  12.2064

          k =-0.4286 0.4286 0.4286 (  4820 PWs)   bands (ev):

   -47.9555 -19.8969 -19.8713 -19.8713 -11.3783  -0.8839   0.7111   0.7111
     8.2019  11.4328  11.9091  11.9091

          k = 0.0000 0.0000 0.2857 (  4817 PWs)   bands (ev):

   -47.9560 -19.8744 -19.8708 -19.8708 -11.6167   0.4755   0.8378   0.8378
     6.8970  11.0288  12.4687  12.4687

          k =-0.1429 0.1429 0.4286 (  4805 PWs)   bands (ev):

   -47.9557 -19.8831 -19.8721 -19.8716 -11.5083  -0.1200   0.7116   0.7160
     7.8759  10.4864  11.8989  12.7249

          k =-0.2857 0.2857 0.5714 (  4805 PWs)   bands (ev):

   -47.9555 -19.8926 -19.8732 -19.8727 -11.3868  -0.6724   0.5371   0.6367
     8.6004  10.7802  11.3425  12.4262

          k = 0.5714-0.5714-0.2857 (  4796 PWs)   bands (ev):

   -47.9554 -19.8955 -19.8746 -19.8721 -11.3470  -0.8269   0.4281   0.6538
     8.7372  10.9895  11.4946  12.2268

          k = 0.4286-0.4286-0.1429 (  4802 PWs)   bands (ev):

   -47.9555 -19.8900 -19.8745 -19.8707 -11.4218  -0.5148   0.4750   0.7561
     8.5026  10.7715  11.4890  12.3963

          k = 0.2857-0.2857-0.0000 (  4798 PWs)   bands (ev):

   -47.9558 -19.8807 -19.8724 -19.8697 -11.5500   0.0603   0.6876   0.8717
     7.5083  10.8395  12.1312  12.6856

          k = 0.0000 0.0000 0.5714 (  4805 PWs)   bands (ev):

   -47.9556 -19.8836 -19.8742 -19.8742 -11.4513  -0.2612   0.5811   0.5811
     8.3388   9.7831  11.5370  13.6925

          k =-0.1429 0.1429 0.7143 (  4803 PWs)   bands (ev):

   -47.9553 -19.8880 -19.8766 -19.8752 -11.3654  -0.5238   0.3478   0.4944
     8.8712   9.6764  11.2659  13.6892

          k = 0.7143-0.7143-0.1429 (  4811 PWs)   bands (ev):

   -47.9552 -19.8893 -19.8807 -19.8744 -11.3158  -0.5394  -0.0192   0.5143
     9.2905  10.1940  11.2205  13.2185

          k = 0.5714-0.5714 0.0000 (  4808 PWs)   bands (ev):

   -47.9553 -19.8895 -19.8805 -19.8724 -11.3415  -0.4929  -0.0172   0.6279
     9.5359  10.5184  10.7849  12.8466

          k = 0.0000 0.0000 0.8571 (  4800 PWs)   bands (ev):

   -47.9552 -19.8887 -19.8769 -19.8769 -11.3299  -0.6487   0.3935   0.3935
     8.5421   9.1009  12.0165  15.2866

          k = 0.8571-0.8571-0.0000 (  4816 PWs)   bands (ev):

   -47.9552 -19.8881 -19.8800 -19.8766 -11.3078  -0.6084   0.1571   0.4019
     8.7724   9.3641  11.9786  14.4709

          k = 0.0000 0.2857 0.5714 (  4794 PWs)   bands (ev):

   -47.9555 -19.8873 -19.8761 -19.8724 -11.4124  -0.4066   0.3805   0.6423
     8.8172  10.1773  11.1187  13.1301

          k = 0.8571-0.5714-0.2857 (  4822 PWs)   bands (ev):

   -47.9553 -19.8906 -19.8785 -19.8740 -11.3335  -0.5863   0.1361   0.5242
     9.4659  10.3725  10.8443  12.8394

          k = 1.0000-0.7143-0.1429 (  4821 PWs)   bands (ev):

   -47.9552 -19.8876 -19.8791 -19.8774 -11.3159  -0.5304   0.1587   0.3301
     9.2006   9.6949  11.3244  13.5009

          k = 0.8571-0.5714 0.0000 (  4810 PWs)   bands (ev):

   -47.9552 -19.8847 -19.8841 -19.8768 -11.3018  -0.2961  -0.2324   0.3479
     9.7000  10.2184  10.9861  12.6708

     the Fermi energy is     3.5136 ev

!    total energy              =    -188.84998830 Ry
     Harris-Foulkes estimate   =    -188.84998830 Ry
     estimated scf accuracy    <          2.3E-09 Ry

     total all-electron energy =     -1248.137003 Ry

     The total energy is the sum of the following terms:

     one-electron contribution =     -80.91620996 Ry
     hartree contribution      =      47.14347487 Ry
     xc contribution           =     -25.67415661 Ry
     ewald contribution        =     -68.79919271 Ry
     one-center paw contrib.   =     -60.60390390 Ry
     smearing contrib. (-TS)   =       0.00000000 Ry

     convergence has been achieved in   6 iterations

     Forces acting on atoms (cartesian axes, Ry/au):

     atom    1 type  2   force =     0.00000000    0.00000000    0.00000000
     atom    2 type  1   force =     0.00000000    0.00000000    0.00000000

     Total force =     0.000000     Total SCF correction =     0.000000


     Computing stress (Cartesian axis) and pressure

          total   stress  (Ry/bohr**3)                   (kbar)     P=    7.84
   0.00005331  -0.00000000  -0.00000000          7.84     -0.00     -0.00
  -0.00000000   0.00005331  -0.00000000         -0.00      7.84     -0.00
  -0.00000000  -0.00000000   0.00005331         -0.00     -0.00      7.84


     Writing output data file halite.save/

     init_run     :      7.02s CPU      7.85s WALL (       1 calls)
     electrons    :     65.55s CPU     67.15s WALL (       1 calls)
     forces       :      1.85s CPU      1.98s WALL (       1 calls)
     stress       :      4.38s CPU      4.71s WALL (       1 calls)

     Called by init_run:
     wfcinit      :      2.20s CPU      2.87s WALL (       1 calls)
     potinit      :      0.92s CPU      0.93s WALL (       1 calls)
     hinit0       :      3.32s CPU      3.34s WALL (       1 calls)

     Called by electrons:
     c_bands      :     45.70s CPU     46.05s WALL (       7 calls)
     sum_band     :     11.84s CPU     12.38s WALL (       7 calls)
     v_of_rho     :      1.39s CPU      1.39s WALL (       7 calls)
     newd         :      3.28s CPU      3.82s WALL (       7 calls)
     PAW_pot      :      4.31s CPU      4.32s WALL (       7 calls)
     mix_rho      :      0.15s CPU      0.15s WALL (       7 calls)

     Called by c_bands:
     init_us_2    :      1.08s CPU      1.10s WALL (     340 calls)
     cegterg      :     44.21s CPU     44.54s WALL (     140 calls)

     Called by sum_band:
     sum_band:bec :      0.01s CPU      0.01s WALL (     140 calls)
     addusdens    :      4.22s CPU      4.73s WALL (       7 calls)

     Called by *egterg:
     h_psi        :     33.61s CPU     33.86s WALL (     576 calls)
     s_psi        :      2.93s CPU      2.95s WALL (     576 calls)
     g_psi        :      0.11s CPU      0.11s WALL (     416 calls)
     cdiaghg      :      0.39s CPU      0.40s WALL (     536 calls)

     Called by h_psi:
     h_psi:pot    :     33.52s CPU     33.78s WALL (     576 calls)
     h_psi:calbec :      3.28s CPU      3.30s WALL (     576 calls)
     vloc_psi     :     27.30s CPU     27.52s WALL (     576 calls)
     add_vuspsi   :      2.93s CPU      2.95s WALL (     576 calls)

     General routines
     calbec       :      5.24s CPU      5.27s WALL (     816 calls)
     fft          :      1.07s CPU      1.09s WALL (     115 calls)
     ffts         :      0.08s CPU      0.08s WALL (      14 calls)
     fftw         :     27.47s CPU     27.68s WALL (   11040 calls)
     interpolate  :      0.13s CPU      0.13s WALL (       7 calls)

     Parallel routines

     PWSCF        :   1m23.54s CPU   1m27.16s WALL


   This run was terminated on:   8:12: 1  18Feb2020            

=------------------------------------------------------------------------------=
   JOB DONE.
=------------------------------------------------------------------------------=
