     Message from routine get_command_line:
     unexpected argument # 2     :-input

     Program PWSCF v.6.4.1 starts on 18Feb2020 at 18:12:27 

     This program is part of the open-source Quantum ESPRESSO suite
     for quantum simulation of materials; please cite
         "P. Giannozzi et al., J. Phys.:Condens. Matter 21 395502 (2009);
         "P. Giannozzi et al., J. Phys.:Condens. Matter 29 465901 (2017);
          URL http://www.quantum-espresso.org", 
     in publications or presentations arising from this work. More details at
     http://www.quantum-espresso.org/quote

     Parallel version (MPI), running on     1 processors

     MPI processes distributed on     1 nodes
     Waiting for input...
     Reading input from standard input

     Current dimensions of program PWSCF are:
     Max number of different atomic species (ntypx) = 10
     Max number of k-points (npk) =  40000
     Max angular momentum in pseudopotentials (lmaxx) =  3
     Message from routine volume:
     axis vectors are left-handed

     IMPORTANT: XC functional enforced from input :
     Exchange-correlation      = PBE ( 1  4  3  4 0 0)
     Any further DFT definition will be discarded
     Please, verify this is what you really want

               file Na.pbe-spn-kjpaw_psl.1.0.0.UPF: wavefunction(s)  2P renormalized
               file Cl.pbe-n-kjpaw_psl.1.0.0.UPF: wavefunction(s)  3S 3P renormalized

     Subspace diagonalization in iterative solution of the eigenvalue problem:
     a serial algorithm will be used

     Message from routine setup:
     DEPRECATED: symmetry with ibrav=0, use correct ibrav instead

     G-vector sticks info
     --------------------
     sticks:   dense  smooth     PW     G-vecs:    dense   smooth      PW
     Sum         313     253     85                 3695     2685     531



     bravais-lattice index     =            0
     lattice parameter (alat)  =      10.6591  a.u.
     unit-cell volume          =     302.7633 (a.u.)^3
     number of atoms/cell      =            2
     number of atomic types    =            2
     number of electrons       =        16.00
     number of Kohn-Sham states=           12
     kinetic-energy cutoff     =      16.0000  Ry
     charge density cutoff     =      80.0000  Ry
     convergence threshold     =      1.0E-08
     mixing beta               =       0.7000
     number of iterations used =            8  plain     mixing
     Exchange-correlation      = PBE ( 1  4  3  4 0 0)

     celldm(1)=  10.659114  celldm(2)=   0.000000  celldm(3)=   0.000000
     celldm(4)=   0.000000  celldm(5)=   0.000000  celldm(6)=   0.000000

     crystal axes: (cart. coord. in units of alat)
               a(1) = (   0.500000   0.500000   0.000000 )  
               a(2) = (   0.500000   0.000000   0.500000 )  
               a(3) = (   0.000000   0.500000   0.500000 )  

     reciprocal axes: (cart. coord. in units 2 pi/alat)
               b(1) = (  1.000000  1.000000 -1.000000 )  
               b(2) = (  1.000000 -1.000000  1.000000 )  
               b(3) = ( -1.000000  1.000000  1.000000 )  


     PseudoPot. # 1 for Na read from file:
     ./Na.pbe-spn-kjpaw_psl.1.0.0.UPF
     MD5 check sum: 05b4deb74e3932c23ab016979dc8b5d4
     Pseudo is Projector augmented-wave + core cor, Zval =  9.0
     Generated using "atomic" code by A. Dal Corso v.6.3
     Shape of augmentation charge: PSQ
     Using radial grid of 1121 points,  4 beta functions with: 
                l(1) =   0
                l(2) =   0
                l(3) =   1
                l(4) =   1
     Q(r) pseudized with 0 coefficients 


     PseudoPot. # 2 for Cl read from file:
     ./Cl.pbe-n-kjpaw_psl.1.0.0.UPF
     MD5 check sum: 530da96d25dcb7781b0586ca00827062
     Pseudo is Projector augmented-wave + core cor, Zval =  7.0
     Generated using "atomic" code by A. Dal Corso v.6.3
     Shape of augmentation charge: PSQ
     Using radial grid of 1157 points,  6 beta functions with: 
                l(1) =   0
                l(2) =   0
                l(3) =   1
                l(4) =   1
                l(5) =   2
                l(6) =   2
     Q(r) pseudized with 0 coefficients 


     atomic species   valence    mass     pseudopotential
        Na             9.00    22.98900     Na( 1.00)
        Cl             7.00    35.45150     Cl( 1.00)

     48 Sym. Ops., with inversion, found



   Cartesian axes

     site n.     atom                  positions (alat units)
         1           Cl  tau(   1) = (   0.5000000   0.5000000   0.5000000  )
         2           Na  tau(   2) = (   0.0000000   0.0000000   0.0000000  )

     number of k points=    10  Marzari-Vanderbilt smearing, width (Ry)=  0.0050
                       cart. coord. in units 2pi/alat
        k(    1) = (   0.0000000   0.0000000   0.0000000), wk =   0.0160000
        k(    2) = (  -0.2000000   0.2000000   0.2000000), wk =   0.1280000
        k(    3) = (  -0.4000000   0.4000000   0.4000000), wk =   0.1280000
        k(    4) = (   0.0000000   0.0000000   0.4000000), wk =   0.0960000
        k(    5) = (  -0.2000000   0.2000000   0.6000000), wk =   0.3840000
        k(    6) = (   0.6000000  -0.6000000  -0.2000000), wk =   0.3840000
        k(    7) = (   0.4000000  -0.4000000   0.0000000), wk =   0.1920000
        k(    8) = (   0.0000000   0.0000000   0.8000000), wk =   0.0960000
        k(    9) = (   0.8000000  -0.8000000   0.0000000), wk =   0.1920000
        k(   10) = (   1.0000000  -0.6000000  -0.2000000), wk =   0.3840000

     Dense  grid:     3695 G-vectors     FFT dimensions: (  24,  24,  24)

     Smooth grid:     2685 G-vectors     FFT dimensions: (  20,  20,  20)

     Estimated max dynamical RAM per process >      17.15 MB

     Check: negative core charge=   -0.000109

     Initial potential from superposition of free atoms

     starting charge   15.99370, renormalised to   16.00000
     Starting wfcs are    9 randomized atomic wfcs +    3 random wfcs
     Checking if some PAW data can be deallocated... 

     total cpu time spent up to now is        7.1 secs

     Self-consistent Calculation

     iteration #  1     ecut=    16.00 Ry     beta= 0.70
     Davidson diagonalization with overlap
     ethr =  1.00E-02,  avg # of iterations =  5.5

     negative rho (up, down):  3.678E-03 0.000E+00

     total cpu time spent up to now is        8.1 secs

     total energy              =    -184.16025301 Ry
     Harris-Foulkes estimate   =    -185.07797966 Ry
     estimated scf accuracy    <       1.25915873 Ry

     iteration #  2     ecut=    16.00 Ry     beta= 0.70
     Davidson diagonalization with overlap
     ethr =  7.87E-03,  avg # of iterations =  2.0

     negative rho (up, down):  1.642E-02 0.000E+00

     total cpu time spent up to now is        9.0 secs

     total energy              =    -184.51852238 Ry
     Harris-Foulkes estimate   =    -184.57402282 Ry
     estimated scf accuracy    <       0.08472196 Ry

     iteration #  3     ecut=    16.00 Ry     beta= 0.70
     Davidson diagonalization with overlap
     ethr =  5.30E-04,  avg # of iterations =  2.0

     negative rho (up, down):  2.709E-02 0.000E+00

     total cpu time spent up to now is        9.8 secs

     total energy              =    -184.53490808 Ry
     Harris-Foulkes estimate   =    -184.53690329 Ry
     estimated scf accuracy    <       0.00385857 Ry

     iteration #  4     ecut=    16.00 Ry     beta= 0.70
     Davidson diagonalization with overlap
     ethr =  2.41E-05,  avg # of iterations =  3.0

     negative rho (up, down):  3.194E-02 0.000E+00

     total cpu time spent up to now is       10.6 secs

     total energy              =    -184.53562174 Ry
     Harris-Foulkes estimate   =    -184.53574967 Ry
     estimated scf accuracy    <       0.00041078 Ry

     iteration #  5     ecut=    16.00 Ry     beta= 0.70
     Davidson diagonalization with overlap
     ethr =  2.57E-06,  avg # of iterations =  2.5

     negative rho (up, down):  3.186E-02 0.000E+00

     total cpu time spent up to now is       11.5 secs

     total energy              =    -184.53566119 Ry
     Harris-Foulkes estimate   =    -184.53566573 Ry
     estimated scf accuracy    <       0.00001136 Ry

     iteration #  6     ecut=    16.00 Ry     beta= 0.70
     Davidson diagonalization with overlap
     ethr =  7.10E-08,  avg # of iterations =  2.0

     negative rho (up, down):  3.193E-02 0.000E+00

     total cpu time spent up to now is       12.3 secs

     total energy              =    -184.53566446 Ry
     Harris-Foulkes estimate   =    -184.53566376 Ry
     estimated scf accuracy    <       0.00000005 Ry

     iteration #  7     ecut=    16.00 Ry     beta= 0.70
     Davidson diagonalization with overlap
     ethr =  3.04E-10,  avg # of iterations =  2.1

     negative rho (up, down):  3.198E-02 0.000E+00

     total cpu time spent up to now is       13.1 secs

     End of self-consistent calculation

          k = 0.0000 0.0000 0.0000 (   331 PWs)   bands (ev):

   -57.3461 -20.1963 -20.1963 -20.1963 -11.9646   0.9184   0.9184   0.9184
     5.2286  11.6874  11.6874  11.6875

          k =-0.2000 0.2000 0.2000 (   320 PWs)   bands (ev):

   -57.2050 -19.5497 -19.5497 -18.8032 -11.8513   0.0429   0.8398   0.8398
     6.3869  10.5732  11.9976  11.9976

          k =-0.4000 0.4000 0.4000 (   329 PWs)   bands (ev):

   -57.2585 -19.8462 -19.8462 -19.8036 -11.6589  -1.0108   0.6843   0.6843
     7.3758  10.7011  11.5916  11.5916

          k = 0.0000 0.0000 0.4000 (   331 PWs)   bands (ev):

   -57.3050 -20.1596 -20.1596 -19.8992 -11.8208   0.0264   0.6695   0.6695
     6.7753   9.9443  11.8297  12.5285

          k =-0.2000 0.2000 0.6000 (   324 PWs)   bands (ev):

   -57.2217 -19.7795 -19.5821 -19.2416 -11.6635  -0.6871   0.3950   0.5205
     8.0250   9.6681  10.7159  12.6160

          k = 0.6000-0.6000-0.2000 (   332 PWs)   bands (ev):

   -57.2797 -20.5733 -19.9572 -19.5582 -11.6012  -0.9186   0.1063   0.5603
     8.3399  10.2618  10.6189  12.1741

          k = 0.4000-0.4000 0.0000 (   323 PWs)   bands (ev):

   -57.2151 -19.5602 -19.4844 -19.3310 -11.7172  -0.4884   0.3499   0.7616
     7.6834  10.0021  11.1659  12.4237

          k = 0.0000 0.0000 0.8000 (   322 PWs)   bands (ev):

   -57.2023 -19.5119 -19.3213 -19.3213 -11.6026  -0.8130   0.3441   0.3441
     8.0861   8.5870  11.1005  14.3852

          k = 0.8000-0.8000 0.0000 (   330 PWs)   bands (ev):

   -57.2587 -20.1933 -19.7764 -19.7360 -11.5622  -0.7228  -0.1427   0.3469
     8.4441   9.1384  10.9667  13.6294

          k = 1.0000-0.6000-0.2000 (   325 PWs)   bands (ev):

   -57.2057 -19.7055 -19.4585 -19.3917 -11.5763  -0.6323  -0.1198   0.3069
     9.2612   9.6049   9.9525  12.4823

     the Fermi energy is     0.9298 ev

!    total energy              =    -184.53566489 Ry
     Harris-Foulkes estimate   =    -184.53566447 Ry
     estimated scf accuracy    <          3.3E-09 Ry

     total all-electron energy =     -1243.822680 Ry

     The total energy is the sum of the following terms:

     one-electron contribution =     -71.82225735 Ry
     hartree contribution      =      41.28077477 Ry
     xc contribution           =     -24.74996189 Ry
     ewald contribution        =     -68.79919274 Ry
     one-center paw contrib.   =     -60.44523465 Ry
     smearing contrib. (-TS)   =       0.00020696 Ry

     convergence has been achieved in   7 iterations

     negative rho (up, down):  3.198E-02 0.000E+00

     Forces acting on atoms (cartesian axes, Ry/au):

     atom    1 type  2   force =     0.00000000   -0.00000000    0.00000000
     atom    2 type  1   force =     0.00000000   -0.00000000    0.00000000

     Total force =     0.000000     Total SCF correction =     0.000000


     Computing stress (Cartesian axis) and pressure


     negative rho (up, down):  3.198E-02 0.000E+00
          total   stress  (Ry/bohr**3)                   (kbar)     P= -5335.24
  -0.03626822   0.00000000   0.00000000      -5335.24      0.00      0.00
   0.00000000  -0.03626822   0.00000000          0.00  -5335.24      0.00
   0.00000000   0.00000000  -0.03626822          0.00      0.00  -5335.24


     Writing output data file halite.save/

     init_run     :      2.06s CPU      2.41s WALL (       1 calls)
     electrons    :      5.84s CPU      6.03s WALL (       1 calls)
     forces       :      0.16s CPU      0.16s WALL (       1 calls)
     stress       :      0.24s CPU      0.24s WALL (       1 calls)

     Called by init_run:
     wfcinit      :      0.07s CPU      0.14s WALL (       1 calls)
     potinit      :      0.65s CPU      0.74s WALL (       1 calls)
     hinit0       :      1.25s CPU      1.33s WALL (       1 calls)

     Called by electrons:
     c_bands      :      1.04s CPU      1.08s WALL (       7 calls)
     sum_band     :      0.45s CPU      0.45s WALL (       7 calls)
     v_of_rho     :      0.14s CPU      0.16s WALL (       8 calls)
     newd         :      0.26s CPU      0.26s WALL (       8 calls)
     PAW_pot      :      4.60s CPU      4.66s WALL (       8 calls)
     mix_rho      :      0.01s CPU      0.05s WALL (       7 calls)

     Called by c_bands:
     init_us_2    :      0.04s CPU      0.05s WALL (     170 calls)
     cegterg      :      0.99s CPU      1.03s WALL (      70 calls)

     Called by sum_band:
     sum_band:bec :      0.00s CPU      0.00s WALL (      70 calls)
     addusdens    :      0.29s CPU      0.29s WALL (       7 calls)

     Called by *egterg:
     h_psi        :      0.53s CPU      0.55s WALL (     271 calls)
     s_psi        :      0.10s CPU      0.10s WALL (     271 calls)
     g_psi        :      0.00s CPU      0.00s WALL (     191 calls)
     cdiaghg      :      0.14s CPU      0.21s WALL (     261 calls)

     Called by h_psi:
     h_psi:pot    :      0.53s CPU      0.55s WALL (     271 calls)
     h_psi:calbec :      0.11s CPU      0.11s WALL (     271 calls)
     vloc_psi     :      0.33s CPU      0.34s WALL (     271 calls)
     add_vuspsi   :      0.09s CPU      0.10s WALL (     271 calls)

     General routines
     calbec       :      0.21s CPU      0.21s WALL (     391 calls)
     fft          :      0.14s CPU      0.22s WALL (     127 calls)
     ffts         :      0.00s CPU      0.00s WALL (      15 calls)
     fftw         :      0.23s CPU      0.23s WALL (    5228 calls)
     interpolate  :      0.01s CPU      0.01s WALL (       8 calls)

     Parallel routines

     PWSCF        :     12.62s CPU     13.80s WALL


   This run was terminated on:  18:12:41  18Feb2020            

=------------------------------------------------------------------------------=
   JOB DONE.
=------------------------------------------------------------------------------=
