     Message from routine get_command_line:
     unexpected argument # 2     :-input

     Program PWSCF v.6.4.1 starts on 18Feb2020 at 18:32:55 

     This program is part of the open-source Quantum ESPRESSO suite
     for quantum simulation of materials; please cite
         "P. Giannozzi et al., J. Phys.:Condens. Matter 21 395502 (2009);
         "P. Giannozzi et al., J. Phys.:Condens. Matter 29 465901 (2017);
          URL http://www.quantum-espresso.org", 
     in publications or presentations arising from this work. More details at
     http://www.quantum-espresso.org/quote

     Parallel version (MPI), running on     1 processors

     MPI processes distributed on     1 nodes
     Waiting for input...
     Reading input from standard input

     Current dimensions of program PWSCF are:
     Max number of different atomic species (ntypx) = 10
     Max number of k-points (npk) =  40000
     Max angular momentum in pseudopotentials (lmaxx) =  3
     Message from routine volume:
     axis vectors are left-handed

     IMPORTANT: XC functional enforced from input :
     Exchange-correlation      = PBE ( 1  4  3  4 0 0)
     Any further DFT definition will be discarded
     Please, verify this is what you really want

               file Na.pbe-spn-kjpaw_psl.1.0.0.UPF: wavefunction(s)  2P renormalized
               file Cl.pbe-n-kjpaw_psl.1.0.0.UPF: wavefunction(s)  3S 3P renormalized

     Subspace diagonalization in iterative solution of the eigenvalue problem:
     a serial algorithm will be used

     Message from routine setup:
     DEPRECATED: symmetry with ibrav=0, use correct ibrav instead

     G-vector sticks info
     --------------------
     sticks:   dense  smooth     PW     G-vecs:    dense   smooth      PW
     Sum        1891    1507    433                53977    38517    5985



     bravais-lattice index     =            0
     lattice parameter (alat)  =      10.6591  a.u.
     unit-cell volume          =     302.7633 (a.u.)^3
     number of atoms/cell      =            2
     number of atomic types    =            2
     number of electrons       =        16.00
     number of Kohn-Sham states=           12
     kinetic-energy cutoff     =      96.0000  Ry
     charge density cutoff     =     480.0000  Ry
     convergence threshold     =      1.0E-08
     mixing beta               =       0.7000
     number of iterations used =            8  plain     mixing
     Exchange-correlation      = PBE ( 1  4  3  4 0 0)

     celldm(1)=  10.659114  celldm(2)=   0.000000  celldm(3)=   0.000000
     celldm(4)=   0.000000  celldm(5)=   0.000000  celldm(6)=   0.000000

     crystal axes: (cart. coord. in units of alat)
               a(1) = (   0.500000   0.500000   0.000000 )  
               a(2) = (   0.500000   0.000000   0.500000 )  
               a(3) = (   0.000000   0.500000   0.500000 )  

     reciprocal axes: (cart. coord. in units 2 pi/alat)
               b(1) = (  1.000000  1.000000 -1.000000 )  
               b(2) = (  1.000000 -1.000000  1.000000 )  
               b(3) = ( -1.000000  1.000000  1.000000 )  


     PseudoPot. # 1 for Na read from file:
     ./Na.pbe-spn-kjpaw_psl.1.0.0.UPF
     MD5 check sum: 05b4deb74e3932c23ab016979dc8b5d4
     Pseudo is Projector augmented-wave + core cor, Zval =  9.0
     Generated using "atomic" code by A. Dal Corso v.6.3
     Shape of augmentation charge: PSQ
     Using radial grid of 1121 points,  4 beta functions with: 
                l(1) =   0
                l(2) =   0
                l(3) =   1
                l(4) =   1
     Q(r) pseudized with 0 coefficients 


     PseudoPot. # 2 for Cl read from file:
     ./Cl.pbe-n-kjpaw_psl.1.0.0.UPF
     MD5 check sum: 530da96d25dcb7781b0586ca00827062
     Pseudo is Projector augmented-wave + core cor, Zval =  7.0
     Generated using "atomic" code by A. Dal Corso v.6.3
     Shape of augmentation charge: PSQ
     Using radial grid of 1157 points,  6 beta functions with: 
                l(1) =   0
                l(2) =   0
                l(3) =   1
                l(4) =   1
                l(5) =   2
                l(6) =   2
     Q(r) pseudized with 0 coefficients 


     atomic species   valence    mass     pseudopotential
        Na             9.00    22.98900     Na( 1.00)
        Cl             7.00    35.45150     Cl( 1.00)

     48 Sym. Ops., with inversion, found



   Cartesian axes

     site n.     atom                  positions (alat units)
         1           Cl  tau(   1) = (   0.5000000   0.5000000   0.5000000  )
         2           Na  tau(   2) = (   0.0000000   0.0000000   0.0000000  )

     number of k points=    35  Marzari-Vanderbilt smearing, width (Ry)=  0.0050
                       cart. coord. in units 2pi/alat
        k(    1) = (   0.0000000   0.0000000   0.0000000), wk =   0.0027435
        k(    2) = (  -0.1111111   0.1111111   0.1111111), wk =   0.0219479
        k(    3) = (  -0.2222222   0.2222222   0.2222222), wk =   0.0219479
        k(    4) = (  -0.3333333   0.3333333   0.3333333), wk =   0.0219479
        k(    5) = (  -0.4444444   0.4444444   0.4444444), wk =   0.0219479
        k(    6) = (   0.0000000   0.0000000   0.2222222), wk =   0.0164609
        k(    7) = (  -0.1111111   0.1111111   0.3333333), wk =   0.0658436
        k(    8) = (  -0.2222222   0.2222222   0.4444444), wk =   0.0658436
        k(    9) = (  -0.3333333   0.3333333   0.5555556), wk =   0.0658436
        k(   10) = (   0.5555556  -0.5555556  -0.3333333), wk =   0.0658436
        k(   11) = (   0.4444444  -0.4444444  -0.2222222), wk =   0.0658436
        k(   12) = (   0.3333333  -0.3333333  -0.1111111), wk =   0.0658436
        k(   13) = (   0.2222222  -0.2222222  -0.0000000), wk =   0.0329218
        k(   14) = (   0.0000000   0.0000000   0.4444444), wk =   0.0164609
        k(   15) = (  -0.1111111   0.1111111   0.5555556), wk =   0.0658436
        k(   16) = (  -0.2222222   0.2222222   0.6666667), wk =   0.0658436
        k(   17) = (   0.6666667  -0.6666667  -0.2222222), wk =   0.0658436
        k(   18) = (   0.5555556  -0.5555556  -0.1111111), wk =   0.0658436
        k(   19) = (   0.4444444  -0.4444444   0.0000000), wk =   0.0329218
        k(   20) = (   0.0000000   0.0000000   0.6666667), wk =   0.0164609
        k(   21) = (  -0.1111111   0.1111111   0.7777778), wk =   0.0658436
        k(   22) = (   0.7777778  -0.7777778  -0.1111111), wk =   0.0658436
        k(   23) = (   0.6666667  -0.6666667  -0.0000000), wk =   0.0329218
        k(   24) = (   0.0000000   0.0000000   0.8888889), wk =   0.0164609
        k(   25) = (   0.8888889  -0.8888889   0.0000000), wk =   0.0329218
        k(   26) = (   0.0000000   0.2222222   0.4444444), wk =   0.0658436
        k(   27) = (  -0.1111111   0.3333333   0.5555556), wk =   0.1316872
        k(   28) = (   0.7777778  -0.5555556  -0.3333333), wk =   0.1316872
        k(   29) = (   0.0000000   0.2222222   0.6666667), wk =   0.0658436
        k(   30) = (   0.8888889  -0.6666667  -0.2222222), wk =   0.1316872
        k(   31) = (   0.7777778  -0.5555556  -0.1111111), wk =   0.1316872
        k(   32) = (   0.6666667  -0.4444444   0.0000000), wk =   0.0658436
        k(   33) = (   1.0000000  -0.7777778  -0.1111111), wk =   0.0658436
        k(   34) = (   0.8888889  -0.6666667  -0.0000000), wk =   0.0658436
        k(   35) = (   1.0000000  -0.5555556  -0.1111111), wk =   0.0658436

     Dense  grid:    53977 G-vectors     FFT dimensions: (  54,  54,  54)

     Smooth grid:    38517 G-vectors     FFT dimensions: (  48,  48,  48)

     Estimated max dynamical RAM per process >     239.90 MB

     Check: negative core charge=   -0.000001

     Initial potential from superposition of free atoms

     starting charge   15.99370, renormalised to   16.00000
     Starting wfcs are    9 randomized atomic wfcs +    3 random wfcs
     Checking if some PAW data can be deallocated... 

     total cpu time spent up to now is       12.6 secs

     Self-consistent Calculation

     iteration #  1     ecut=    96.00 Ry     beta= 0.70
     Davidson diagonalization with overlap
     ethr =  1.00E-02,  avg # of iterations =  5.5

     Threshold (ethr) on eigenvalues was too large:
     Diagonalizing with lowered threshold

     Davidson diagonalization with overlap
     ethr =  3.39E-04,  avg # of iterations =  1.5

     total cpu time spent up to now is       39.5 secs

     total energy              =    -188.83260966 Ry
     Harris-Foulkes estimate   =    -188.86433778 Ry
     estimated scf accuracy    <       0.05153306 Ry

     iteration #  2     ecut=    96.00 Ry     beta= 0.70
     Davidson diagonalization with overlap
     ethr =  3.22E-04,  avg # of iterations =  2.0

     total cpu time spent up to now is       52.5 secs

     total energy              =    -188.84701417 Ry
     Harris-Foulkes estimate   =    -188.85404519 Ry
     estimated scf accuracy    <       0.01297852 Ry

     iteration #  3     ecut=    96.00 Ry     beta= 0.70
     Davidson diagonalization with overlap
     ethr =  8.11E-05,  avg # of iterations =  2.3

     total cpu time spent up to now is       65.4 secs

     total energy              =    -188.84993135 Ry
     Harris-Foulkes estimate   =    -188.84980816 Ry
     estimated scf accuracy    <       0.00026111 Ry

     iteration #  4     ecut=    96.00 Ry     beta= 0.70
     Davidson diagonalization with overlap
     ethr =  1.63E-06,  avg # of iterations =  4.0

     total cpu time spent up to now is       81.7 secs

     total energy              =    -188.84998717 Ry
     Harris-Foulkes estimate   =    -188.84998543 Ry
     estimated scf accuracy    <       0.00000152 Ry

     iteration #  5     ecut=    96.00 Ry     beta= 0.70
     Davidson diagonalization with overlap
     ethr =  9.50E-09,  avg # of iterations =  3.1

     total cpu time spent up to now is       97.0 secs

     total energy              =    -188.84998847 Ry
     Harris-Foulkes estimate   =    -188.84998831 Ry
     estimated scf accuracy    <       0.00000010 Ry

     iteration #  6     ecut=    96.00 Ry     beta= 0.70
     Davidson diagonalization with overlap
     ethr =  5.99E-10,  avg # of iterations =  2.5

     total cpu time spent up to now is      110.6 secs

     End of self-consistent calculation

          k = 0.0000 0.0000 0.0000 (  4909 PWs)   bands (ev):

   -47.9562 -19.8692 -19.8692 -19.8692 -11.6947   0.9617   0.9617   0.9617
     6.0648  12.0012  12.0012  12.0012

          k =-0.1111 0.1111 0.1111 (  4807 PWs)   bands (ev):

   -47.9561 -19.8727 -19.8695 -19.8695 -11.6576   0.6636   0.9292   0.9292
     6.4660  11.5667  12.1574  12.1574

          k =-0.2222 0.2222 0.2222 (  4801 PWs)   bands (ev):

   -47.9558 -19.8813 -19.8701 -19.8701 -11.5614   0.0307   0.8491   0.8491
     7.3275  11.0043  12.3100  12.3100

          k =-0.3333 0.3333 0.3333 (  4813 PWs)   bands (ev):

   -47.9556 -19.8911 -19.8708 -19.8708 -11.4480  -0.5663   0.7615   0.7615
     8.0052  11.0241  12.0917  12.0917

          k =-0.4444 0.4444 0.4444 (  4814 PWs)   bands (ev):

   -47.9554 -19.8974 -19.8713 -19.8713 -11.3715  -0.9135   0.7062   0.7062
     8.2128  11.4908  11.8912  11.8913

          k = 0.0000 0.0000 0.2222 (  4817 PWs)   bands (ev):

   -47.9560 -19.8725 -19.8702 -19.8702 -11.6460   0.6428   0.8839   0.8839
     6.5970  11.3358  12.2883  12.2883

          k =-0.1111 0.1111 0.3333 (  4821 PWs)   bands (ev):

   -47.9558 -19.8787 -19.8711 -19.8706 -11.5714   0.1788   0.7955   0.8106
     7.3134  10.8110  12.2998  12.5530

          k =-0.2222 0.2222 0.4444 (  4822 PWs)   bands (ev):

   -47.9556 -19.8875 -19.8719 -19.8714 -11.4659  -0.3784   0.6998   0.7076
     8.1129  10.6593  11.7745  12.4630

          k =-0.3333 0.3333 0.5556 (  4810 PWs)   bands (ev):

   -47.9554 -19.8945 -19.8725 -19.8722 -11.3781  -0.7728   0.5888   0.6593
     8.4845  11.0529  11.5155  12.2083

          k = 0.5556-0.5556-0.3333 (  4799 PWs)   bands (ev):

   -47.9553 -19.8965 -19.8733 -19.8718 -11.3522  -0.8781   0.5281   0.6705
     8.5481  11.1899  11.6181  12.0876

          k = 0.4444-0.4444-0.2222 (  4805 PWs)   bands (ev):

   -47.9554 -19.8927 -19.8734 -19.8709 -11.4020  -0.6654   0.5460   0.7367
     8.4386  10.9983  11.5779  12.1914

          k = 0.3333-0.3333-0.1111 (  4807 PWs)   bands (ev):

   -47.9557 -19.8848 -19.8727 -19.8699 -11.5013  -0.2046   0.6430   0.8299
     7.8880  10.7519  11.9744  12.4959

          k = 0.2222-0.2222-0.0000 (  4809 PWs)   bands (ev):

   -47.9559 -19.8769 -19.8712 -19.8694 -11.6015   0.3268   0.7956   0.9073
     7.0262  11.1034  12.2678  12.4169

          k = 0.0000 0.0000 0.4444 (  4817 PWs)   bands (ev):

   -47.9557 -19.8796 -19.8725 -19.8725 -11.5270   0.0395   0.6978   0.6978
     7.7481  10.2842  12.0242  13.0769

          k =-0.1111 0.1111 0.5556 (  4801 PWs)   bands (ev):

   -47.9555 -19.8849 -19.8738 -19.8737 -11.4472  -0.2982   0.5619   0.6041
     8.4137   9.9797  11.4433  13.2701

          k =-0.2222 0.2222 0.6667 (  4802 PWs)   bands (ev):

   -47.9553 -19.8900 -19.8756 -19.8740 -11.3685  -0.5758   0.3564   0.5556
     8.9347  10.2187  11.0729  13.0045

          k = 0.6667-0.6667-0.2222 (  4811 PWs)   bands (ev):

   -47.9552 -19.8923 -19.8777 -19.8734 -11.3289  -0.6755   0.1734   0.5719
     9.1870  10.4628  11.2282  12.7414

          k = 0.5556-0.5556-0.1111 (  4825 PWs)   bands (ev):

   -47.9553 -19.8911 -19.8785 -19.8721 -11.3486  -0.5943   0.1350   0.6466
     9.2733  10.6664  10.9453  12.6468

          k = 0.4444-0.4444 0.0000 (  4796 PWs)   bands (ev):

   -47.9555 -19.8882 -19.8765 -19.8707 -11.4174  -0.4189   0.3225   0.7484
     8.7686  10.5777  11.2478  12.7011

          k = 0.0000 0.0000 0.6667 (  4780 PWs)   bands (ev):

   -47.9554 -19.8859 -19.8753 -19.8753 -11.4003  -0.4369   0.5026   0.5026
     8.5766   9.4831  11.4776  14.2087

          k =-0.1111 0.1111 0.7778 (  4817 PWs)   bands (ev):

   -47.9552 -19.8880 -19.8772 -19.8759 -11.3468  -0.5683   0.3304   0.4476
     8.7870   9.4207  11.5352  14.1774

          k = 0.7778-0.7778-0.1111 (  4813 PWs)   bands (ev):

   -47.9552 -19.8878 -19.8812 -19.8754 -11.3120  -0.5261   0.0040   0.4611
     9.0887   9.8585  11.4717  13.7033

          k = 0.6667-0.6667-0.0000 (  4826 PWs)   bands (ev):

   -47.9552 -19.8873 -19.8835 -19.8739 -11.3128  -0.3612  -0.2591   0.5380
     9.4999  10.2766  11.1284  13.1976

          k = 0.0000 0.0000 0.8889 (  4808 PWs)   bands (ev):

   -47.9551 -19.8889 -19.8770 -19.8770 -11.3233  -0.6668   0.3832   0.3832
     8.5177   9.0666  12.1149  15.4473

          k = 0.8889-0.8889 0.0000 (  4820 PWs)   bands (ev):

   -47.9551 -19.8885 -19.8789 -19.8768 -11.3096  -0.6420   0.2343   0.3884
     8.6688   9.2239  12.0929  14.7492

          k = 0.0000 0.2222 0.4444 (  4814 PWs)   bands (ev):

   -47.9556 -19.8834 -19.8737 -19.8710 -11.4940  -0.1495   0.5855   0.7599
     8.0434  10.4248  11.7491  13.0281

          k =-0.1111 0.3333 0.5556 (  4798 PWs)   bands (ev):

   -47.9554 -19.8892 -19.8756 -19.8719 -11.4035  -0.4939   0.3947   0.6676
     8.7916  10.4597  11.1439  12.7624

          k = 0.7778-0.5556-0.3333 (  4815 PWs)   bands (ev):

   -47.9553 -19.8931 -19.8762 -19.8729 -11.3430  -0.7103   0.2943   0.5943
     9.0703  10.6588  11.1733  12.5357

          k = 0.0000 0.2222 0.6667 (  4799 PWs)   bands (ev):

   -47.9553 -19.8874 -19.8765 -19.8744 -11.3818  -0.4703   0.3666   0.5191
     8.9410   9.7917  11.1075  13.5744

          k = 0.8889-0.6667-0.2222 (  4804 PWs)   bands (ev):

   -47.9552 -19.8888 -19.8790 -19.8754 -11.3284  -0.5329   0.1239   0.4431
     9.3762  10.0745  10.9052  13.2233

          k = 0.7778-0.5556-0.1111 (  4806 PWs)   bands (ev):

   -47.9552 -19.8887 -19.8811 -19.8749 -11.3128  -0.4822  -0.0688   0.4635
     9.7223  10.1763  10.9705  12.8544

          k = 0.6667-0.4444 0.0000 (  4818 PWs)   bands (ev):

   -47.9553 -19.8890 -19.8798 -19.8733 -11.3429  -0.4931   0.0537   0.5607
     9.6539  10.4389  10.4979  12.9458

          k = 1.0000-0.7778-0.1111 (  4811 PWs)   bands (ev):

   -47.9551 -19.8879 -19.8784 -19.8776 -11.3150  -0.5822   0.2333   0.3299
     8.9342   9.4426  11.6907  13.9232

          k = 0.8889-0.6667-0.0000 (  4811 PWs)   bands (ev):

   -47.9551 -19.8859 -19.8824 -19.8770 -11.3017  -0.4443  -0.0589   0.3452
     9.3162   9.9201  11.4192  13.0808

          k = 1.0000-0.5556-0.1111 (  4804 PWs)   bands (ev):

   -47.9551 -19.8856 -19.8819 -19.8779 -11.3021  -0.3574  -0.1076   0.2808
     9.7670  10.3763  10.6915  12.6000

     the Fermi energy is     3.6442 ev

!    total energy              =    -188.84998851 Ry
     Harris-Foulkes estimate   =    -188.84998851 Ry
     estimated scf accuracy    <          1.6E-09 Ry

     total all-electron energy =     -1248.137004 Ry

     The total energy is the sum of the following terms:

     one-electron contribution =     -80.91615450 Ry
     hartree contribution      =      47.14340968 Ry
     xc contribution           =     -25.67414641 Ry
     ewald contribution        =     -68.79919271 Ry
     one-center paw contrib.   =     -60.60390457 Ry
     smearing contrib. (-TS)   =       0.00000000 Ry

     convergence has been achieved in   6 iterations

     Forces acting on atoms (cartesian axes, Ry/au):

     atom    1 type  2   force =     0.00000000    0.00000000    0.00000000
     atom    2 type  1   force =     0.00000000    0.00000000    0.00000000

     Total force =     0.000000     Total SCF correction =     0.000000


     Computing stress (Cartesian axis) and pressure

          total   stress  (Ry/bohr**3)                   (kbar)     P=    7.82
   0.00005319  -0.00000000  -0.00000000          7.82     -0.00     -0.00
  -0.00000000   0.00005319  -0.00000000         -0.00      7.82     -0.00
  -0.00000000  -0.00000000   0.00005319         -0.00     -0.00      7.82


     Writing output data file halite.save/

     init_run     :      8.12s CPU      8.31s WALL (       1 calls)
     electrons    :     96.75s CPU     98.00s WALL (       1 calls)
     forces       :      2.29s CPU      2.36s WALL (       1 calls)
     stress       :      4.78s CPU      4.97s WALL (       1 calls)

     Called by init_run:
     wfcinit      :      3.63s CPU      3.66s WALL (       1 calls)
     potinit      :      0.86s CPU      0.88s WALL (       1 calls)
     hinit0       :      3.11s CPU      3.13s WALL (       1 calls)

     Called by electrons:
     c_bands      :     73.17s CPU     73.54s WALL (       7 calls)
     sum_band     :     15.99s CPU     16.50s WALL (       7 calls)
     v_of_rho     :      1.29s CPU      1.30s WALL (       7 calls)
     newd         :      3.19s CPU      3.65s WALL (       7 calls)
     PAW_pot      :      4.04s CPU      4.05s WALL (       7 calls)
     mix_rho      :      0.13s CPU      0.13s WALL (       7 calls)

     Called by c_bands:
     init_us_2    :      1.70s CPU      1.72s WALL (     595 calls)
     cegterg      :     70.80s CPU     71.16s WALL (     245 calls)

     Called by sum_band:
     sum_band:bec :      0.01s CPU      0.01s WALL (     245 calls)
     addusdens    :      4.00s CPU      4.47s WALL (       7 calls)

     Called by *egterg:
     h_psi        :     53.58s CPU     53.86s WALL (    1011 calls)
     s_psi        :      4.79s CPU      4.83s WALL (    1011 calls)
     g_psi        :      0.18s CPU      0.18s WALL (     731 calls)
     cdiaghg      :      0.66s CPU      0.66s WALL (     941 calls)

     Called by h_psi:
     h_psi:pot    :     53.44s CPU     53.72s WALL (    1011 calls)
     h_psi:calbec :      5.26s CPU      5.28s WALL (    1011 calls)
     vloc_psi     :     43.36s CPU     43.59s WALL (    1011 calls)
     add_vuspsi   :      4.81s CPU      4.84s WALL (    1011 calls)

     General routines
     calbec       :      8.46s CPU      8.50s WALL (    1431 calls)
     fft          :      1.00s CPU      1.01s WALL (     115 calls)
     ffts         :      0.07s CPU      0.07s WALL (      14 calls)
     fftw         :     43.68s CPU     43.90s WALL (   19304 calls)
     interpolate  :      0.12s CPU      0.12s WALL (       7 calls)

     Parallel routines

     PWSCF        :   1m56.29s CPU   1m58.08s WALL


   This run was terminated on:  18:34:53  18Feb2020            

=------------------------------------------------------------------------------=
   JOB DONE.
=------------------------------------------------------------------------------=
