     Message from routine get_command_line:
     unexpected argument # 2     :-input

     Program PWSCF v.6.4.1 starts on 18Feb2020 at  6: 3:11 

     This program is part of the open-source Quantum ESPRESSO suite
     for quantum simulation of materials; please cite
         "P. Giannozzi et al., J. Phys.:Condens. Matter 21 395502 (2009);
         "P. Giannozzi et al., J. Phys.:Condens. Matter 29 465901 (2017);
          URL http://www.quantum-espresso.org", 
     in publications or presentations arising from this work. More details at
     http://www.quantum-espresso.org/quote

     Parallel version (MPI), running on     1 processors

     MPI processes distributed on     1 nodes
     Waiting for input...
     Reading input from standard input

     Current dimensions of program PWSCF are:
     Max number of different atomic species (ntypx) = 10
     Max number of k-points (npk) =  40000
     Max angular momentum in pseudopotentials (lmaxx) =  3
     Message from routine volume:
     axis vectors are left-handed

     IMPORTANT: XC functional enforced from input :
     Exchange-correlation      = PBE ( 1  4  3  4 0 0)
     Any further DFT definition will be discarded
     Please, verify this is what you really want

               file Na.pbe-spn-kjpaw_psl.1.0.0.UPF: wavefunction(s)  2P renormalized
               file Cl.pbe-n-kjpaw_psl.1.0.0.UPF: wavefunction(s)  3S 3P renormalized

     Subspace diagonalization in iterative solution of the eigenvalue problem:
     a serial algorithm will be used

     Message from routine setup:
     DEPRECATED: symmetry with ibrav=0, use correct ibrav instead

     G-vector sticks info
     --------------------
     sticks:   dense  smooth     PW     G-vecs:    dense   smooth      PW
     Sum        1261    1039    301                29627    22075    3479



     bravais-lattice index     =            0
     lattice parameter (alat)  =      10.6591  a.u.
     unit-cell volume          =     302.7633 (a.u.)^3
     number of atoms/cell      =            2
     number of atomic types    =            2
     number of electrons       =        16.00
     number of Kohn-Sham states=           12
     kinetic-energy cutoff     =      66.0000  Ry
     charge density cutoff     =     323.0000  Ry
     convergence threshold     =      1.0E-08
     mixing beta               =       0.7000
     number of iterations used =            8  plain     mixing
     Exchange-correlation      = PBE ( 1  4  3  4 0 0)

     celldm(1)=  10.659114  celldm(2)=   0.000000  celldm(3)=   0.000000
     celldm(4)=   0.000000  celldm(5)=   0.000000  celldm(6)=   0.000000

     crystal axes: (cart. coord. in units of alat)
               a(1) = (   0.500000   0.500000   0.000000 )  
               a(2) = (   0.500000   0.000000   0.500000 )  
               a(3) = (   0.000000   0.500000   0.500000 )  

     reciprocal axes: (cart. coord. in units 2 pi/alat)
               b(1) = (  1.000000  1.000000 -1.000000 )  
               b(2) = (  1.000000 -1.000000  1.000000 )  
               b(3) = ( -1.000000  1.000000  1.000000 )  


     PseudoPot. # 1 for Na read from file:
     ./Na.pbe-spn-kjpaw_psl.1.0.0.UPF
     MD5 check sum: 05b4deb74e3932c23ab016979dc8b5d4
     Pseudo is Projector augmented-wave + core cor, Zval =  9.0
     Generated using "atomic" code by A. Dal Corso v.6.3
     Shape of augmentation charge: PSQ
     Using radial grid of 1121 points,  4 beta functions with: 
                l(1) =   0
                l(2) =   0
                l(3) =   1
                l(4) =   1
     Q(r) pseudized with 0 coefficients 


     PseudoPot. # 2 for Cl read from file:
     ./Cl.pbe-n-kjpaw_psl.1.0.0.UPF
     MD5 check sum: 530da96d25dcb7781b0586ca00827062
     Pseudo is Projector augmented-wave + core cor, Zval =  7.0
     Generated using "atomic" code by A. Dal Corso v.6.3
     Shape of augmentation charge: PSQ
     Using radial grid of 1157 points,  6 beta functions with: 
                l(1) =   0
                l(2) =   0
                l(3) =   1
                l(4) =   1
                l(5) =   2
                l(6) =   2
     Q(r) pseudized with 0 coefficients 


     atomic species   valence    mass     pseudopotential
        Na             9.00    22.98900     Na( 1.00)
        Cl             7.00    35.45150     Cl( 1.00)

     48 Sym. Ops., with inversion, found



   Cartesian axes

     site n.     atom                  positions (alat units)
         1           Cl  tau(   1) = (   0.5000000   0.5000000   0.5000000  )
         2           Na  tau(   2) = (   0.0000000   0.0000000   0.0000000  )

     number of k points=    10  Marzari-Vanderbilt smearing, width (Ry)=  0.0050
                       cart. coord. in units 2pi/alat
        k(    1) = (   0.0000000   0.0000000   0.0000000), wk =   0.0160000
        k(    2) = (  -0.2000000   0.2000000   0.2000000), wk =   0.1280000
        k(    3) = (  -0.4000000   0.4000000   0.4000000), wk =   0.1280000
        k(    4) = (   0.0000000   0.0000000   0.4000000), wk =   0.0960000
        k(    5) = (  -0.2000000   0.2000000   0.6000000), wk =   0.3840000
        k(    6) = (   0.6000000  -0.6000000  -0.2000000), wk =   0.3840000
        k(    7) = (   0.4000000  -0.4000000   0.0000000), wk =   0.1920000
        k(    8) = (   0.0000000   0.0000000   0.8000000), wk =   0.0960000
        k(    9) = (   0.8000000  -0.8000000   0.0000000), wk =   0.1920000
        k(   10) = (   1.0000000  -0.6000000  -0.2000000), wk =   0.3840000

     Dense  grid:    29627 G-vectors     FFT dimensions: (  45,  45,  45)

     Smooth grid:    22075 G-vectors     FFT dimensions: (  40,  40,  40)

     Estimated max dynamical RAM per process >     121.79 MB

     Check: negative core charge=   -0.000001

     Initial potential from superposition of free atoms

     starting charge   15.99370, renormalised to   16.00000
     Starting wfcs are    9 randomized atomic wfcs +    3 random wfcs
     Checking if some PAW data can be deallocated... 

     total cpu time spent up to now is        9.0 secs

     Self-consistent Calculation

     iteration #  1     ecut=    66.00 Ry     beta= 0.70
     Davidson diagonalization with overlap
     ethr =  1.00E-02,  avg # of iterations =  6.7

     Threshold (ethr) on eigenvalues was too large:
     Diagonalizing with lowered threshold

     Davidson diagonalization with overlap
     ethr =  3.24E-04,  avg # of iterations =  1.4

     total cpu time spent up to now is       16.0 secs

     total energy              =    -188.82992414 Ry
     Harris-Foulkes estimate   =    -188.86109747 Ry
     estimated scf accuracy    <       0.05088440 Ry

     iteration #  2     ecut=    66.00 Ry     beta= 0.70
     Davidson diagonalization with overlap
     ethr =  3.18E-04,  avg # of iterations =  2.3

     total cpu time spent up to now is       20.0 secs

     total energy              =    -188.84353460 Ry
     Harris-Foulkes estimate   =    -188.85029593 Ry
     estimated scf accuracy    <       0.01239799 Ry

     iteration #  3     ecut=    66.00 Ry     beta= 0.70
     Davidson diagonalization with overlap
     ethr =  7.75E-05,  avg # of iterations =  2.5

     total cpu time spent up to now is       23.8 secs

     total energy              =    -188.84636180 Ry
     Harris-Foulkes estimate   =    -188.84624119 Ry
     estimated scf accuracy    <       0.00026354 Ry

     iteration #  4     ecut=    66.00 Ry     beta= 0.70
     Davidson diagonalization with overlap
     ethr =  1.65E-06,  avg # of iterations =  3.7

     total cpu time spent up to now is       28.2 secs

     total energy              =    -188.84641413 Ry
     Harris-Foulkes estimate   =    -188.84641208 Ry
     estimated scf accuracy    <       0.00000114 Ry

     iteration #  5     ecut=    66.00 Ry     beta= 0.70
     Davidson diagonalization with overlap
     ethr =  7.11E-09,  avg # of iterations =  3.3

     total cpu time spent up to now is       32.6 secs

     total energy              =    -188.84641526 Ry
     Harris-Foulkes estimate   =    -188.84641530 Ry
     estimated scf accuracy    <       0.00000008 Ry

     iteration #  6     ecut=    66.00 Ry     beta= 0.70
     Davidson diagonalization with overlap
     ethr =  4.86E-10,  avg # of iterations =  3.0

     total cpu time spent up to now is       36.8 secs

     total energy              =    -188.84641529 Ry
     Harris-Foulkes estimate   =    -188.84641531 Ry
     estimated scf accuracy    <       0.00000005 Ry

     iteration #  7     ecut=    66.00 Ry     beta= 0.70
     Davidson diagonalization with overlap
     ethr =  3.15E-10,  avg # of iterations =  3.0

     total cpu time spent up to now is       40.8 secs

     End of self-consistent calculation

          k = 0.0000 0.0000 0.0000 (  2733 PWs)   bands (ev):

   -47.9547 -19.8643 -19.8643 -19.8643 -11.6950   0.9616   0.9616   0.9616
     6.0633  11.9992  11.9992  11.9992

          k =-0.2000 0.2000 0.2000 (  2740 PWs)   bands (ev):

   -47.9545 -19.8746 -19.8651 -19.8651 -11.5839   0.1635   0.8670   0.8670
     7.1484  11.0829  12.3132  12.3132

          k =-0.4000 0.4000 0.4000 (  2743 PWs)   bands (ev):

   -47.9540 -19.8906 -19.8664 -19.8664 -11.3947  -0.8137   0.7223   0.7223
     8.1717  11.3081  11.9557  11.9557

          k = 0.0000 0.0000 0.4000 (  2750 PWs)   bands (ev):

   -47.9544 -19.8736 -19.8672 -19.8672 -11.5538   0.1580   0.7390   0.7390
     7.5064  10.4807  12.2697  12.8859

          k =-0.2000 0.2000 0.6000 (  2747 PWs)   bands (ev):

   -47.9540 -19.8842 -19.8694 -19.8689 -11.4014  -0.5021   0.4707   0.5904
     8.7228  10.2266  11.1972  12.9340

          k = 0.6000-0.6000-0.2000 (  2754 PWs)   bands (ev):

   -47.9539 -19.8884 -19.8725 -19.8679 -11.3360  -0.7083   0.2165   0.6179
     9.1253  10.6419  11.2664  12.5427

          k = 0.4000-0.4000 0.0000 (  2742 PWs)   bands (ev):

   -47.9541 -19.8819 -19.8703 -19.8655 -11.4525  -0.3237   0.4354   0.7869
     8.4227  10.5890  11.5335  12.7441

          k = 0.0000 0.0000 0.8000 (  2750 PWs)   bands (ev):

   -47.9538 -19.8833 -19.8718 -19.8718 -11.3459  -0.6044   0.4181   0.4181
     8.5871   9.1819  11.8209  14.9745

          k = 0.8000-0.8000 0.0000 (  2738 PWs)   bands (ev):

   -47.9537 -19.8821 -19.8771 -19.8711 -11.3054  -0.5287  -0.0041   0.4336
     8.9805   9.6805  11.7362  14.0207

          k = 1.0000-0.6000-0.2000 (  2727 PWs)   bands (ev):

   -47.9537 -19.8825 -19.8755 -19.8711 -11.3174  -0.4587   0.0113   0.3821
     9.7299  10.2191  10.5841  13.0106

     the Fermi energy is     3.2603 ev

!    total energy              =    -188.84641530 Ry
     Harris-Foulkes estimate   =    -188.84641530 Ry
     estimated scf accuracy    <          1.2E-09 Ry

     total all-electron energy =     -1248.133430 Ry

     The total energy is the sum of the following terms:

     one-electron contribution =     -80.91305535 Ry
     hartree contribution      =      47.14081208 Ry
     xc contribution           =     -25.67400015 Ry
     ewald contribution        =     -68.79919271 Ry
     one-center paw contrib.   =     -60.60097917 Ry
     smearing contrib. (-TS)   =       0.00000000 Ry

     convergence has been achieved in   7 iterations

     Forces acting on atoms (cartesian axes, Ry/au):

     atom    1 type  2   force =     0.00000000    0.00000000    0.00000000
     atom    2 type  1   force =     0.00000000    0.00000000    0.00000000

     Total force =     0.000000     Total SCF correction =     0.000000


     Computing stress (Cartesian axis) and pressure

          total   stress  (Ry/bohr**3)                   (kbar)     P=    1.23
   0.00000834   0.00000000   0.00000000          1.23      0.00      0.00
   0.00000000   0.00000834   0.00000000          0.00      1.23      0.00
   0.00000000   0.00000000   0.00000834          0.00      0.00      1.23


     Writing output data file halite.save/

     init_run     :      4.39s CPU      4.50s WALL (       1 calls)
     electrons    :     31.13s CPU     31.81s WALL (       1 calls)
     forces       :      0.82s CPU      0.85s WALL (       1 calls)
     stress       :      1.78s CPU      1.86s WALL (       1 calls)

     Called by init_run:
     wfcinit      :      0.80s CPU      0.80s WALL (       1 calls)
     potinit      :      0.76s CPU      0.78s WALL (       1 calls)
     hinit0       :      2.55s CPU      2.55s WALL (       1 calls)

     Called by electrons:
     c_bands      :     18.09s CPU     18.15s WALL (       8 calls)
     sum_band     :      6.09s CPU      6.47s WALL (       8 calls)
     v_of_rho     :      0.86s CPU      0.87s WALL (       8 calls)
     newd         :      2.07s CPU      2.36s WALL (       8 calls)
     PAW_pot      :      4.75s CPU      4.76s WALL (       8 calls)
     mix_rho      :      0.09s CPU      0.09s WALL (       8 calls)

     Called by c_bands:
     init_us_2    :      0.34s CPU      0.34s WALL (     190 calls)
     cegterg      :     17.63s CPU     17.69s WALL (      80 calls)

     Called by sum_band:
     sum_band:bec :      0.00s CPU      0.00s WALL (      80 calls)
     addusdens    :      2.57s CPU      2.94s WALL (       8 calls)

     Called by *egterg:
     h_psi        :     14.16s CPU     14.21s WALL (     349 calls)
     s_psi        :      0.94s CPU      0.95s WALL (     349 calls)
     g_psi        :      0.04s CPU      0.04s WALL (     259 calls)
     cdiaghg      :      0.24s CPU      0.24s WALL (     329 calls)

     Called by h_psi:
     h_psi:pot    :     14.13s CPU     14.18s WALL (     349 calls)
     h_psi:calbec :      1.07s CPU      1.07s WALL (     349 calls)
     vloc_psi     :     12.11s CPU     12.16s WALL (     349 calls)
     add_vuspsi   :      0.94s CPU      0.95s WALL (     349 calls)

     General routines
     calbec       :      1.67s CPU      1.67s WALL (     479 calls)
     fft          :      0.60s CPU      0.60s WALL (     128 calls)
     ffts         :      0.07s CPU      0.07s WALL (      16 calls)
     fftw         :     13.19s CPU     13.24s WALL (    6388 calls)
     interpolate  :      0.10s CPU      0.10s WALL (       8 calls)

     Parallel routines

     PWSCF        :     42.68s CPU     43.63s WALL


   This run was terminated on:   6: 3:55  18Feb2020            

=------------------------------------------------------------------------------=
   JOB DONE.
=------------------------------------------------------------------------------=
