     Message from routine get_command_line:
     unexpected argument # 2     :-input

     Program PWSCF v.6.4.1 starts on 18Feb2020 at  9:35:36 

     This program is part of the open-source Quantum ESPRESSO suite
     for quantum simulation of materials; please cite
         "P. Giannozzi et al., J. Phys.:Condens. Matter 21 395502 (2009);
         "P. Giannozzi et al., J. Phys.:Condens. Matter 29 465901 (2017);
          URL http://www.quantum-espresso.org", 
     in publications or presentations arising from this work. More details at
     http://www.quantum-espresso.org/quote

     Parallel version (MPI), running on     1 processors

     MPI processes distributed on     1 nodes
     Waiting for input...
     Reading input from standard input

     Current dimensions of program PWSCF are:
     Max number of different atomic species (ntypx) = 10
     Max number of k-points (npk) =  40000
     Max angular momentum in pseudopotentials (lmaxx) =  3
     Message from routine volume:
     axis vectors are left-handed

     IMPORTANT: XC functional enforced from input :
     Exchange-correlation      = PBE ( 1  4  3  4 0 0)
     Any further DFT definition will be discarded
     Please, verify this is what you really want

               file Na.pbe-spn-kjpaw_psl.1.0.0.UPF: wavefunction(s)  2P renormalized
               file Cl.pbe-n-kjpaw_psl.1.0.0.UPF: wavefunction(s)  3S 3P renormalized

     Subspace diagonalization in iterative solution of the eigenvalue problem:
     a serial algorithm will be used

     Message from routine setup:
     DEPRECATED: symmetry with ibrav=0, use correct ibrav instead

     G-vector sticks info
     --------------------
     sticks:   dense  smooth     PW     G-vecs:    dense   smooth      PW
     Sum        2839    1417    421                98741    35053    5577



     bravais-lattice index     =            0
     lattice parameter (alat)  =      10.6591  a.u.
     unit-cell volume          =     302.7633 (a.u.)^3
     number of atoms/cell      =            2
     number of atomic types    =            2
     number of electrons       =        16.00
     number of Kohn-Sham states=           12
     kinetic-energy cutoff     =      90.0000  Ry
     charge density cutoff     =     720.0000  Ry
     convergence threshold     =      1.0E-08
     mixing beta               =       0.7000
     number of iterations used =            8  plain     mixing
     Exchange-correlation      = PBE ( 1  4  3  4 0 0)

     celldm(1)=  10.659114  celldm(2)=   0.000000  celldm(3)=   0.000000
     celldm(4)=   0.000000  celldm(5)=   0.000000  celldm(6)=   0.000000

     crystal axes: (cart. coord. in units of alat)
               a(1) = (   0.500000   0.500000   0.000000 )  
               a(2) = (   0.500000   0.000000   0.500000 )  
               a(3) = (   0.000000   0.500000   0.500000 )  

     reciprocal axes: (cart. coord. in units 2 pi/alat)
               b(1) = (  1.000000  1.000000 -1.000000 )  
               b(2) = (  1.000000 -1.000000  1.000000 )  
               b(3) = ( -1.000000  1.000000  1.000000 )  


     PseudoPot. # 1 for Na read from file:
     ./Na.pbe-spn-kjpaw_psl.1.0.0.UPF
     MD5 check sum: 05b4deb74e3932c23ab016979dc8b5d4
     Pseudo is Projector augmented-wave + core cor, Zval =  9.0
     Generated using "atomic" code by A. Dal Corso v.6.3
     Shape of augmentation charge: PSQ
     Using radial grid of 1121 points,  4 beta functions with: 
                l(1) =   0
                l(2) =   0
                l(3) =   1
                l(4) =   1
     Q(r) pseudized with 0 coefficients 


     PseudoPot. # 2 for Cl read from file:
     ./Cl.pbe-n-kjpaw_psl.1.0.0.UPF
     MD5 check sum: 530da96d25dcb7781b0586ca00827062
     Pseudo is Projector augmented-wave + core cor, Zval =  7.0
     Generated using "atomic" code by A. Dal Corso v.6.3
     Shape of augmentation charge: PSQ
     Using radial grid of 1157 points,  6 beta functions with: 
                l(1) =   0
                l(2) =   0
                l(3) =   1
                l(4) =   1
                l(5) =   2
                l(6) =   2
     Q(r) pseudized with 0 coefficients 


     atomic species   valence    mass     pseudopotential
        Na             9.00    22.98900     Na( 1.00)
        Cl             7.00    35.45150     Cl( 1.00)

     48 Sym. Ops., with inversion, found



   Cartesian axes

     site n.     atom                  positions (alat units)
         1           Cl  tau(   1) = (   0.5000000   0.5000000   0.5000000  )
         2           Na  tau(   2) = (   0.0000000   0.0000000   0.0000000  )

     number of k points=    20  Marzari-Vanderbilt smearing, width (Ry)=  0.0050
                       cart. coord. in units 2pi/alat
        k(    1) = (   0.0000000   0.0000000   0.0000000), wk =   0.0058309
        k(    2) = (  -0.1428571   0.1428571   0.1428571), wk =   0.0466472
        k(    3) = (  -0.2857143   0.2857143   0.2857143), wk =   0.0466472
        k(    4) = (  -0.4285714   0.4285714   0.4285714), wk =   0.0466472
        k(    5) = (   0.0000000   0.0000000   0.2857143), wk =   0.0349854
        k(    6) = (  -0.1428571   0.1428571   0.4285714), wk =   0.1399417
        k(    7) = (  -0.2857143   0.2857143   0.5714286), wk =   0.1399417
        k(    8) = (   0.5714286  -0.5714286  -0.2857143), wk =   0.1399417
        k(    9) = (   0.4285714  -0.4285714  -0.1428571), wk =   0.1399417
        k(   10) = (   0.2857143  -0.2857143  -0.0000000), wk =   0.0699708
        k(   11) = (   0.0000000   0.0000000   0.5714286), wk =   0.0349854
        k(   12) = (  -0.1428571   0.1428571   0.7142857), wk =   0.1399417
        k(   13) = (   0.7142857  -0.7142857  -0.1428571), wk =   0.1399417
        k(   14) = (   0.5714286  -0.5714286   0.0000000), wk =   0.0699708
        k(   15) = (   0.0000000   0.0000000   0.8571429), wk =   0.0349854
        k(   16) = (   0.8571429  -0.8571429  -0.0000000), wk =   0.0699708
        k(   17) = (   0.0000000   0.2857143   0.5714286), wk =   0.1399417
        k(   18) = (   0.8571429  -0.5714286  -0.2857143), wk =   0.2798834
        k(   19) = (   1.0000000  -0.7142857  -0.1428571), wk =   0.1399417
        k(   20) = (   0.8571429  -0.5714286   0.0000000), wk =   0.1399417

     Dense  grid:    98741 G-vectors     FFT dimensions: (  72,  72,  72)

     Smooth grid:    35053 G-vectors     FFT dimensions: (  45,  45,  45)

     Estimated max dynamical RAM per process >     397.87 MB

     Initial potential from superposition of free atoms

     starting charge   15.99370, renormalised to   16.00000
     Starting wfcs are    9 randomized atomic wfcs +    3 random wfcs
     Checking if some PAW data can be deallocated... 

     total cpu time spent up to now is       13.8 secs

     Self-consistent Calculation

     iteration #  1     ecut=    90.00 Ry     beta= 0.70
     Davidson diagonalization with overlap
     ethr =  1.00E-02,  avg # of iterations =  6.0

     Threshold (ethr) on eigenvalues was too large:
     Diagonalizing with lowered threshold

     Davidson diagonalization with overlap
     ethr =  3.44E-04,  avg # of iterations =  1.2

     total cpu time spent up to now is       35.1 secs

     total energy              =    -188.83191485 Ry
     Harris-Foulkes estimate   =    -188.86409601 Ry
     estimated scf accuracy    <       0.05206199 Ry

     iteration #  2     ecut=    90.00 Ry     beta= 0.70
     Davidson diagonalization with overlap
     ethr =  3.25E-04,  avg # of iterations =  2.0

     total cpu time spent up to now is       46.1 secs

     total energy              =    -188.84683245 Ry
     Harris-Foulkes estimate   =    -188.85414018 Ry
     estimated scf accuracy    <       0.01349693 Ry

     iteration #  3     ecut=    90.00 Ry     beta= 0.70
     Davidson diagonalization with overlap
     ethr =  8.44E-05,  avg # of iterations =  2.0

     total cpu time spent up to now is       58.4 secs

     total energy              =    -188.84985362 Ry
     Harris-Foulkes estimate   =    -188.84972497 Ry
     estimated scf accuracy    <       0.00026183 Ry

     iteration #  4     ecut=    90.00 Ry     beta= 0.70
     Davidson diagonalization with overlap
     ethr =  1.64E-06,  avg # of iterations =  4.2

     total cpu time spent up to now is       72.5 secs

     total energy              =    -188.84991174 Ry
     Harris-Foulkes estimate   =    -188.84991011 Ry
     estimated scf accuracy    <       0.00000175 Ry

     iteration #  5     ecut=    90.00 Ry     beta= 0.70
     Davidson diagonalization with overlap
     ethr =  1.10E-08,  avg # of iterations =  3.0

     total cpu time spent up to now is       85.4 secs

     total energy              =    -188.84991309 Ry
     Harris-Foulkes estimate   =    -188.84991290 Ry
     estimated scf accuracy    <       0.00000010 Ry

     iteration #  6     ecut=    90.00 Ry     beta= 0.70
     Davidson diagonalization with overlap
     ethr =  6.32E-10,  avg # of iterations =  2.6

     total cpu time spent up to now is       97.5 secs

     End of self-consistent calculation

          k = 0.0000 0.0000 0.0000 (  4381 PWs)   bands (ev):

   -47.9564 -19.8692 -19.8692 -19.8692 -11.6946   0.9618   0.9618   0.9618
     6.0648  12.0012  12.0012  12.0013

          k =-0.1429 0.1429 0.1429 (  4390 PWs)   bands (ev):

   -47.9562 -19.8748 -19.8696 -19.8696 -11.6346   0.4980   0.9098   0.9098
     6.6924  11.3761  12.2321  12.2321

          k =-0.2857 0.2857 0.2857 (  4357 PWs)   bands (ev):

   -47.9559 -19.8871 -19.8705 -19.8705 -11.4952  -0.3317   0.7973   0.7973
     7.7743  10.9255  12.2067  12.2067

          k =-0.4286 0.4286 0.4286 (  4383 PWs)   bands (ev):

   -47.9556 -19.8969 -19.8713 -19.8713 -11.3782  -0.8839   0.7111   0.7111
     8.2020  11.4329  11.9095  11.9095

          k = 0.0000 0.0000 0.2857 (  4384 PWs)   bands (ev):

   -47.9562 -19.8744 -19.8708 -19.8708 -11.6166   0.4756   0.8379   0.8379
     6.8970  11.0287  12.4688  12.4688

          k =-0.1429 0.1429 0.4286 (  4372 PWs)   bands (ev):

   -47.9559 -19.8830 -19.8721 -19.8716 -11.5082  -0.1200   0.7117   0.7161
     7.8760  10.4864  11.8993  12.7252

          k =-0.2857 0.2857 0.5714 (  4374 PWs)   bands (ev):

   -47.9556 -19.8926 -19.8731 -19.8727 -11.3867  -0.6723   0.5371   0.6367
     8.6005  10.7803  11.3427  12.4266

          k = 0.5714-0.5714-0.2857 (  4354 PWs)   bands (ev):

   -47.9555 -19.8955 -19.8745 -19.8720 -11.3469  -0.8268   0.4282   0.6538
     8.7373  10.9899  11.4947  12.2273

          k = 0.4286-0.4286-0.1429 (  4357 PWs)   bands (ev):

   -47.9557 -19.8900 -19.8745 -19.8707 -11.4217  -0.5147   0.4751   0.7562
     8.5027  10.7715  11.4893  12.3967

          k = 0.2857-0.2857-0.0000 (  4369 PWs)   bands (ev):

   -47.9560 -19.8807 -19.8724 -19.8696 -11.5499   0.0603   0.6877   0.8718
     7.5084  10.8394  12.1315  12.6857

          k = 0.0000 0.0000 0.5714 (  4364 PWs)   bands (ev):

   -47.9557 -19.8836 -19.8741 -19.8741 -11.4512  -0.2611   0.5812   0.5812
     8.3389   9.7829  11.5373  13.6928

          k =-0.1429 0.1429 0.7143 (  4368 PWs)   bands (ev):

   -47.9555 -19.8880 -19.8766 -19.8752 -11.3653  -0.5237   0.3479   0.4945
     8.8713   9.6764  11.2661  13.6896

          k = 0.7143-0.7143-0.1429 (  4360 PWs)   bands (ev):

   -47.9554 -19.8893 -19.8807 -19.8744 -11.3157  -0.5393  -0.0191   0.5144
     9.2906  10.1941  11.2206  13.2190

          k = 0.5714-0.5714 0.0000 (  4367 PWs)   bands (ev):

   -47.9555 -19.8894 -19.8805 -19.8724 -11.3414  -0.4928  -0.0171   0.6280
     9.5360  10.5187  10.7849  12.8471

          k = 0.0000 0.0000 0.8571 (  4336 PWs)   bands (ev):

   -47.9554 -19.8886 -19.8769 -19.8769 -11.3298  -0.6486   0.3936   0.3936
     8.5423   9.1007  12.0166  15.2872

          k = 0.8571-0.8571-0.0000 (  4346 PWs)   bands (ev):

   -47.9553 -19.8881 -19.8799 -19.8766 -11.3077  -0.6083   0.1572   0.4020
     8.7726   9.3640  11.9787  14.4714

          k = 0.0000 0.2857 0.5714 (  4383 PWs)   bands (ev):

   -47.9557 -19.8873 -19.8761 -19.8724 -11.4123  -0.4066   0.3806   0.6424
     8.8173  10.1772  11.1190  13.1306

          k = 0.8571-0.5714-0.2857 (  4374 PWs)   bands (ev):

   -47.9555 -19.8906 -19.8784 -19.8739 -11.3334  -0.5863   0.1362   0.5242
     9.4660  10.3728  10.8443  12.8399

          k = 1.0000-0.7143-0.1429 (  4338 PWs)   bands (ev):

   -47.9554 -19.8876 -19.8791 -19.8773 -11.3158  -0.5303   0.1588   0.3302
     9.2008   9.6948  11.3246  13.5014

          k = 0.8571-0.5714 0.0000 (  4364 PWs)   bands (ev):

   -47.9554 -19.8847 -19.8840 -19.8767 -11.3017  -0.2960  -0.2323   0.3480
     9.7002  10.2184  10.9861  12.6712

     the Fermi energy is     3.5140 ev

!    total energy              =    -188.84991313 Ry
     Harris-Foulkes estimate   =    -188.84991313 Ry
     estimated scf accuracy    <          2.2E-09 Ry

     total all-electron energy =     -1248.136928 Ry

     The total energy is the sum of the following terms:

     one-electron contribution =     -80.91605857 Ry
     hartree contribution      =      47.14325892 Ry
     xc contribution           =     -25.67415276 Ry
     ewald contribution        =     -68.79919271 Ry
     one-center paw contrib.   =     -60.60376801 Ry
     smearing contrib. (-TS)   =       0.00000000 Ry

     convergence has been achieved in   6 iterations

     Forces acting on atoms (cartesian axes, Ry/au):

     atom    1 type  2   force =    -0.00000000    0.00000000   -0.00000000
     atom    2 type  1   force =     0.00000000    0.00000000    0.00000000

     Total force =     0.000000     Total SCF correction =     0.000000


     Computing stress (Cartesian axis) and pressure

          total   stress  (Ry/bohr**3)                   (kbar)     P=    7.65
   0.00005200   0.00000000   0.00000000          7.65      0.00      0.00
   0.00000000   0.00005200   0.00000000          0.00      7.65      0.00
   0.00000000   0.00000000   0.00005200          0.00      0.00      7.65


     Writing output data file halite.save/

     init_run     :      8.40s CPU      9.22s WALL (       1 calls)
     electrons    :     80.83s CPU     83.83s WALL (       1 calls)
     forces       :      3.00s CPU      3.17s WALL (       1 calls)
     stress       :      6.52s CPU      7.14s WALL (       1 calls)

     Called by init_run:
     wfcinit      :      2.46s CPU      2.92s WALL (       1 calls)
     potinit      :      1.14s CPU      1.20s WALL (       1 calls)
     hinit0       :      3.78s CPU      3.85s WALL (       1 calls)

     Called by electrons:
     c_bands      :     51.66s CPU     52.13s WALL (       7 calls)
     sum_band     :     16.65s CPU     17.97s WALL (       7 calls)
     v_of_rho     :      3.15s CPU      3.25s WALL (       7 calls)
     newd         :      6.24s CPU      7.45s WALL (       7 calls)
     PAW_pot      :      4.44s CPU      4.49s WALL (       7 calls)
     mix_rho      :      0.27s CPU      0.28s WALL (       7 calls)

     Called by c_bands:
     init_us_2    :      1.00s CPU      1.01s WALL (     340 calls)
     cegterg      :     50.32s CPU     50.78s WALL (     140 calls)

     Called by sum_band:
     sum_band:bec :      0.02s CPU      0.02s WALL (     140 calls)
     addusdens    :      7.83s CPU      9.07s WALL (       7 calls)

     Called by *egterg:
     h_psi        :     41.01s CPU     41.41s WALL (     584 calls)
     s_psi        :      2.67s CPU      2.71s WALL (     584 calls)
     g_psi        :      0.10s CPU      0.10s WALL (     424 calls)
     cdiaghg      :      0.40s CPU      0.41s WALL (     544 calls)

     Called by h_psi:
     h_psi:pot    :     40.94s CPU     41.34s WALL (     584 calls)
     h_psi:calbec :      2.97s CPU      2.99s WALL (     584 calls)
     vloc_psi     :     35.32s CPU     35.67s WALL (     584 calls)
     add_vuspsi   :      2.65s CPU      2.68s WALL (     584 calls)

     General routines
     calbec       :      4.90s CPU      4.95s WALL (     824 calls)
     fft          :      2.20s CPU      2.23s WALL (     115 calls)
     ffts         :      0.08s CPU      0.08s WALL (      14 calls)
     fftw         :     37.24s CPU     37.60s WALL (   11016 calls)
     interpolate  :      0.19s CPU      0.19s WALL (       7 calls)

     Parallel routines

     PWSCF        :   1m43.35s CPU   1m49.77s WALL


   This run was terminated on:   9:37:25  18Feb2020            

=------------------------------------------------------------------------------=
   JOB DONE.
=------------------------------------------------------------------------------=
