     Message from routine get_command_line:
     unexpected argument # 2     :-input

     Program PWSCF v.6.4.1 starts on 18Feb2020 at  6: 3:55 

     This program is part of the open-source Quantum ESPRESSO suite
     for quantum simulation of materials; please cite
         "P. Giannozzi et al., J. Phys.:Condens. Matter 21 395502 (2009);
         "P. Giannozzi et al., J. Phys.:Condens. Matter 29 465901 (2017);
          URL http://www.quantum-espresso.org", 
     in publications or presentations arising from this work. More details at
     http://www.quantum-espresso.org/quote

     Parallel version (MPI), running on     1 processors

     MPI processes distributed on     1 nodes
     Waiting for input...
     Reading input from standard input

     Current dimensions of program PWSCF are:
     Max number of different atomic species (ntypx) = 10
     Max number of k-points (npk) =  40000
     Max angular momentum in pseudopotentials (lmaxx) =  3
     Message from routine volume:
     axis vectors are left-handed

     IMPORTANT: XC functional enforced from input :
     Exchange-correlation      = PBE ( 1  4  3  4 0 0)
     Any further DFT definition will be discarded
     Please, verify this is what you really want

               file Na.pbe-spn-kjpaw_psl.1.0.0.UPF: wavefunction(s)  2P renormalized
               file Cl.pbe-n-kjpaw_psl.1.0.0.UPF: wavefunction(s)  3S 3P renormalized

     Subspace diagonalization in iterative solution of the eigenvalue problem:
     a serial algorithm will be used

     Message from routine setup:
     DEPRECATED: symmetry with ibrav=0, use correct ibrav instead

     G-vector sticks info
     --------------------
     sticks:   dense  smooth     PW     G-vecs:    dense   smooth      PW
     Sum        1261    1039    313                29627    22075    3527



     bravais-lattice index     =            0
     lattice parameter (alat)  =      10.6591  a.u.
     unit-cell volume          =     302.7633 (a.u.)^3
     number of atoms/cell      =            2
     number of atomic types    =            2
     number of electrons       =        16.00
     number of Kohn-Sham states=           12
     kinetic-energy cutoff     =      66.0000  Ry
     charge density cutoff     =     323.0000  Ry
     convergence threshold     =      1.0E-08
     mixing beta               =       0.7000
     number of iterations used =            8  plain     mixing
     Exchange-correlation      = PBE ( 1  4  3  4 0 0)

     celldm(1)=  10.659114  celldm(2)=   0.000000  celldm(3)=   0.000000
     celldm(4)=   0.000000  celldm(5)=   0.000000  celldm(6)=   0.000000

     crystal axes: (cart. coord. in units of alat)
               a(1) = (   0.500000   0.500000   0.000000 )  
               a(2) = (   0.500000   0.000000   0.500000 )  
               a(3) = (   0.000000   0.500000   0.500000 )  

     reciprocal axes: (cart. coord. in units 2 pi/alat)
               b(1) = (  1.000000  1.000000 -1.000000 )  
               b(2) = (  1.000000 -1.000000  1.000000 )  
               b(3) = ( -1.000000  1.000000  1.000000 )  


     PseudoPot. # 1 for Na read from file:
     ./Na.pbe-spn-kjpaw_psl.1.0.0.UPF
     MD5 check sum: 05b4deb74e3932c23ab016979dc8b5d4
     Pseudo is Projector augmented-wave + core cor, Zval =  9.0
     Generated using "atomic" code by A. Dal Corso v.6.3
     Shape of augmentation charge: PSQ
     Using radial grid of 1121 points,  4 beta functions with: 
                l(1) =   0
                l(2) =   0
                l(3) =   1
                l(4) =   1
     Q(r) pseudized with 0 coefficients 


     PseudoPot. # 2 for Cl read from file:
     ./Cl.pbe-n-kjpaw_psl.1.0.0.UPF
     MD5 check sum: 530da96d25dcb7781b0586ca00827062
     Pseudo is Projector augmented-wave + core cor, Zval =  7.0
     Generated using "atomic" code by A. Dal Corso v.6.3
     Shape of augmentation charge: PSQ
     Using radial grid of 1157 points,  6 beta functions with: 
                l(1) =   0
                l(2) =   0
                l(3) =   1
                l(4) =   1
                l(5) =   2
                l(6) =   2
     Q(r) pseudized with 0 coefficients 


     atomic species   valence    mass     pseudopotential
        Na             9.00    22.98900     Na( 1.00)
        Cl             7.00    35.45150     Cl( 1.00)

     48 Sym. Ops., with inversion, found



   Cartesian axes

     site n.     atom                  positions (alat units)
         1           Cl  tau(   1) = (   0.5000000   0.5000000   0.5000000  )
         2           Na  tau(   2) = (   0.0000000   0.0000000   0.0000000  )

     number of k points=    20  Marzari-Vanderbilt smearing, width (Ry)=  0.0050
                       cart. coord. in units 2pi/alat
        k(    1) = (   0.0000000   0.0000000   0.0000000), wk =   0.0058309
        k(    2) = (  -0.1428571   0.1428571   0.1428571), wk =   0.0466472
        k(    3) = (  -0.2857143   0.2857143   0.2857143), wk =   0.0466472
        k(    4) = (  -0.4285714   0.4285714   0.4285714), wk =   0.0466472
        k(    5) = (   0.0000000   0.0000000   0.2857143), wk =   0.0349854
        k(    6) = (  -0.1428571   0.1428571   0.4285714), wk =   0.1399417
        k(    7) = (  -0.2857143   0.2857143   0.5714286), wk =   0.1399417
        k(    8) = (   0.5714286  -0.5714286  -0.2857143), wk =   0.1399417
        k(    9) = (   0.4285714  -0.4285714  -0.1428571), wk =   0.1399417
        k(   10) = (   0.2857143  -0.2857143  -0.0000000), wk =   0.0699708
        k(   11) = (   0.0000000   0.0000000   0.5714286), wk =   0.0349854
        k(   12) = (  -0.1428571   0.1428571   0.7142857), wk =   0.1399417
        k(   13) = (   0.7142857  -0.7142857  -0.1428571), wk =   0.1399417
        k(   14) = (   0.5714286  -0.5714286   0.0000000), wk =   0.0699708
        k(   15) = (   0.0000000   0.0000000   0.8571429), wk =   0.0349854
        k(   16) = (   0.8571429  -0.8571429  -0.0000000), wk =   0.0699708
        k(   17) = (   0.0000000   0.2857143   0.5714286), wk =   0.1399417
        k(   18) = (   0.8571429  -0.5714286  -0.2857143), wk =   0.2798834
        k(   19) = (   1.0000000  -0.7142857  -0.1428571), wk =   0.1399417
        k(   20) = (   0.8571429  -0.5714286   0.0000000), wk =   0.1399417

     Dense  grid:    29627 G-vectors     FFT dimensions: (  45,  45,  45)

     Smooth grid:    22075 G-vectors     FFT dimensions: (  40,  40,  40)

     Estimated max dynamical RAM per process >     126.81 MB

     Check: negative core charge=   -0.000001

     Initial potential from superposition of free atoms

     starting charge   15.99370, renormalised to   16.00000
     Starting wfcs are    9 randomized atomic wfcs +    3 random wfcs
     Checking if some PAW data can be deallocated... 

     total cpu time spent up to now is        9.7 secs

     Self-consistent Calculation

     iteration #  1     ecut=    66.00 Ry     beta= 0.70
     Davidson diagonalization with overlap
     ethr =  1.00E-02,  avg # of iterations =  6.3

     Threshold (ethr) on eigenvalues was too large:
     Diagonalizing with lowered threshold

     Davidson diagonalization with overlap
     ethr =  3.24E-04,  avg # of iterations =  1.3

     total cpu time spent up to now is       22.4 secs

     total energy              =    -188.82993323 Ry
     Harris-Foulkes estimate   =    -188.86110029 Ry
     estimated scf accuracy    <       0.05086963 Ry

     iteration #  2     ecut=    66.00 Ry     beta= 0.70
     Davidson diagonalization with overlap
     ethr =  3.18E-04,  avg # of iterations =  2.6

     total cpu time spent up to now is       29.6 secs

     total energy              =    -188.84354173 Ry
     Harris-Foulkes estimate   =    -188.85031825 Ry
     estimated scf accuracy    <       0.01242363 Ry

     iteration #  3     ecut=    66.00 Ry     beta= 0.70
     Davidson diagonalization with overlap
     ethr =  7.76E-05,  avg # of iterations =  2.0

     total cpu time spent up to now is       36.0 secs

     total energy              =    -188.84637294 Ry
     Harris-Foulkes estimate   =    -188.84625270 Ry
     estimated scf accuracy    <       0.00026415 Ry

     iteration #  4     ecut=    66.00 Ry     beta= 0.70
     Davidson diagonalization with overlap
     ethr =  1.65E-06,  avg # of iterations =  3.9

     total cpu time spent up to now is       43.7 secs

     total energy              =    -188.84642540 Ry
     Harris-Foulkes estimate   =    -188.84642330 Ry
     estimated scf accuracy    <       0.00000107 Ry

     iteration #  5     ecut=    66.00 Ry     beta= 0.70
     Davidson diagonalization with overlap
     ethr =  6.66E-09,  avg # of iterations =  3.1

     total cpu time spent up to now is       51.5 secs

     total energy              =    -188.84642673 Ry
     Harris-Foulkes estimate   =    -188.84642664 Ry
     estimated scf accuracy    <       0.00000005 Ry

     iteration #  6     ecut=    66.00 Ry     beta= 0.70
     Davidson diagonalization with overlap
     ethr =  3.17E-10,  avg # of iterations =  2.8

     total cpu time spent up to now is       58.4 secs

     End of self-consistent calculation

          k = 0.0000 0.0000 0.0000 (  2733 PWs)   bands (ev):

   -47.9539 -19.8635 -19.8635 -19.8635 -11.6953   0.9614   0.9614   0.9614
     6.0631  11.9990  11.9990  11.9990

          k =-0.1429 0.1429 0.1429 (  2740 PWs)   bands (ev):

   -47.9537 -19.8693 -19.8639 -19.8639 -11.6353   0.4974   0.9093   0.9093
     6.6911  11.3744  12.2304  12.2304

          k =-0.2857 0.2857 0.2857 (  2728 PWs)   bands (ev):

   -47.9534 -19.8812 -19.8647 -19.8647 -11.4958  -0.3326   0.7967   0.7967
     7.7741  10.9244  12.2088  12.2088

          k =-0.4286 0.4286 0.4286 (  2749 PWs)   bands (ev):

   -47.9531 -19.8911 -19.8657 -19.8657 -11.3789  -0.8849   0.7105   0.7105
     8.2028  11.4319  11.9133  11.9133

          k = 0.0000 0.0000 0.2857 (  2742 PWs)   bands (ev):

   -47.9537 -19.8688 -19.8650 -19.8650 -11.6173   0.4749   0.8374   0.8374
     6.8957  11.0265  12.4674  12.4674

          k =-0.1429 0.1429 0.4286 (  2750 PWs)   bands (ev):

   -47.9534 -19.8775 -19.8664 -19.8660 -11.5088  -0.1208   0.7112   0.7156
     7.8752  10.4846  11.9025  12.7261

          k =-0.2857 0.2857 0.5714 (  2746 PWs)   bands (ev):

   -47.9531 -19.8869 -19.8674 -19.8671 -11.3873  -0.6732   0.5366   0.6362
     8.6008  10.7795  11.3450  12.4300

          k = 0.5714-0.5714-0.2857 (  2739 PWs)   bands (ev):

   -47.9530 -19.8897 -19.8688 -19.8664 -11.3475  -0.8277   0.4277   0.6532
     8.7381  10.9912  11.4947  12.2317

          k = 0.4286-0.4286-0.1429 (  2738 PWs)   bands (ev):

   -47.9532 -19.8842 -19.8688 -19.8649 -11.4223  -0.5156   0.4746   0.7555
     8.5029  10.7704  11.4915  12.4010

          k = 0.2857-0.2857-0.0000 (  2744 PWs)   bands (ev):

   -47.9535 -19.8752 -19.8667 -19.8639 -11.5506   0.0595   0.6873   0.8712
     7.5075  10.8380  12.1326  12.6835

          k = 0.0000 0.0000 0.5714 (  2750 PWs)   bands (ev):

   -47.9533 -19.8780 -19.8686 -19.8686 -11.4518  -0.2619   0.5808   0.5808
     8.3379   9.7808  11.5414  13.6937

          k =-0.1429 0.1429 0.7143 (  2741 PWs)   bands (ev):

   -47.9530 -19.8823 -19.8708 -19.8696 -11.3659  -0.5244   0.3474   0.4941
     8.8710   9.6746  11.2685  13.6928

          k = 0.7143-0.7143-0.1429 (  2745 PWs)   bands (ev):

   -47.9529 -19.8836 -19.8749 -19.8689 -11.3163  -0.5400  -0.0197   0.5138
     9.2910  10.1937  11.2206  13.2239

          k = 0.5714-0.5714 0.0000 (  2744 PWs)   bands (ev):

   -47.9530 -19.8838 -19.8748 -19.8668 -11.3420  -0.4937  -0.0176   0.6274
     9.5368  10.5193  10.7844  12.8532

          k = 0.0000 0.0000 0.8571 (  2750 PWs)   bands (ev):

   -47.9529 -19.8829 -19.8714 -19.8714 -11.3304  -0.6491   0.3932   0.3932
     8.5419   9.0985  12.0184  15.2910

          k = 0.8571-0.8571-0.0000 (  2754 PWs)   bands (ev):

   -47.9529 -19.8824 -19.8744 -19.8711 -11.3083  -0.6088   0.1567   0.4016
     8.7725   9.3621  11.9795  14.4762

          k = 0.0000 0.2857 0.5714 (  2741 PWs)   bands (ev):

   -47.9532 -19.8816 -19.8704 -19.8667 -11.4130  -0.4074   0.3802   0.6418
     8.8169  10.1757  11.1219  13.1349

          k = 0.8571-0.5714-0.2857 (  2738 PWs)   bands (ev):

   -47.9530 -19.8848 -19.8727 -19.8682 -11.3340  -0.5871   0.1357   0.5237
     9.4663  10.3737  10.8440  12.8449

          k = 1.0000-0.7143-0.1429 (  2732 PWs)   bands (ev):

   -47.9529 -19.8817 -19.8734 -19.8715 -11.3164  -0.5308   0.1584   0.3296
     9.2010   9.6931  11.3256  13.5062

          k = 0.8571-0.5714 0.0000 (  2748 PWs)   bands (ev):

   -47.9529 -19.8790 -19.8785 -19.8711 -11.3023  -0.2964  -0.2329   0.3474
     9.7006  10.2176  10.9856  12.6763

     the Fermi energy is     3.5177 ev

!    total energy              =    -188.84642675 Ry
     Harris-Foulkes estimate   =    -188.84642675 Ry
     estimated scf accuracy    <          1.6E-09 Ry

     total all-electron energy =     -1248.133442 Ry

     The total energy is the sum of the following terms:

     one-electron contribution =     -80.91276961 Ry
     hartree contribution      =      47.14035921 Ry
     xc contribution           =     -25.67386611 Ry
     ewald contribution        =     -68.79919271 Ry
     one-center paw contrib.   =     -60.60095753 Ry
     smearing contrib. (-TS)   =       0.00000000 Ry

     convergence has been achieved in   6 iterations

     Forces acting on atoms (cartesian axes, Ry/au):

     atom    1 type  2   force =     0.00000000    0.00000000    0.00000000
     atom    2 type  1   force =     0.00000000    0.00000000    0.00000000

     Total force =     0.000000     Total SCF correction =     0.000000


     Computing stress (Cartesian axis) and pressure

          total   stress  (Ry/bohr**3)                   (kbar)     P=    1.09
   0.00000739  -0.00000000   0.00000000          1.09     -0.00      0.00
  -0.00000000   0.00000739  -0.00000000         -0.00      1.09     -0.00
   0.00000000  -0.00000000   0.00000739          0.00     -0.00      1.09


     Writing output data file halite.save/

     init_run     :      5.25s CPU      5.32s WALL (       1 calls)
     electrons    :     47.86s CPU     48.76s WALL (       1 calls)
     forces       :      0.99s CPU      1.05s WALL (       1 calls)
     stress       :      2.16s CPU      2.29s WALL (       1 calls)

     Called by init_run:
     wfcinit      :      1.57s CPU      1.58s WALL (       1 calls)
     potinit      :      0.75s CPU      0.76s WALL (       1 calls)
     hinit0       :      2.57s CPU      2.60s WALL (       1 calls)

     Called by electrons:
     c_bands      :     33.55s CPU     33.74s WALL (       7 calls)
     sum_band     :      8.37s CPU      8.75s WALL (       7 calls)
     v_of_rho     :      0.77s CPU      0.78s WALL (       7 calls)
     newd         :      1.76s CPU      2.10s WALL (       7 calls)
     PAW_pot      :      4.19s CPU      4.20s WALL (       7 calls)
     mix_rho      :      0.08s CPU      0.08s WALL (       7 calls)

     Called by c_bands:
     init_us_2    :      0.62s CPU      0.63s WALL (     340 calls)
     cegterg      :     32.69s CPU     32.87s WALL (     140 calls)

     Called by sum_band:
     sum_band:bec :      0.01s CPU      0.01s WALL (     140 calls)
     addusdens    :      2.29s CPU      2.63s WALL (       7 calls)

     Called by *egterg:
     h_psi        :     26.58s CPU     26.72s WALL (     600 calls)
     s_psi        :      1.70s CPU      1.72s WALL (     600 calls)
     g_psi        :      0.06s CPU      0.06s WALL (     440 calls)
     cdiaghg      :      0.43s CPU      0.43s WALL (     560 calls)

     Called by h_psi:
     h_psi:pot    :     26.53s CPU     26.67s WALL (     600 calls)
     h_psi:calbec :      1.88s CPU      1.89s WALL (     600 calls)
     vloc_psi     :     22.88s CPU     23.01s WALL (     600 calls)
     add_vuspsi   :      1.76s CPU      1.77s WALL (     600 calls)

     General routines
     calbec       :      2.96s CPU      2.97s WALL (     840 calls)
     fft          :      0.56s CPU      0.57s WALL (     115 calls)
     ffts         :      0.07s CPU      0.07s WALL (      14 calls)
     fftw         :     24.74s CPU     24.89s WALL (   11198 calls)
     interpolate  :      0.09s CPU      0.09s WALL (       7 calls)

     Parallel routines

     PWSCF        :   1m 0.64s CPU   1m 1.89s WALL


   This run was terminated on:   6: 4:57  18Feb2020            

=------------------------------------------------------------------------------=
   JOB DONE.
=------------------------------------------------------------------------------=
