     Message from routine get_command_line:
     unexpected argument # 2     :-input

     Program PWSCF v.6.4.1 starts on 18Feb2020 at 18:12:59 

     This program is part of the open-source Quantum ESPRESSO suite
     for quantum simulation of materials; please cite
         "P. Giannozzi et al., J. Phys.:Condens. Matter 21 395502 (2009);
         "P. Giannozzi et al., J. Phys.:Condens. Matter 29 465901 (2017);
          URL http://www.quantum-espresso.org", 
     in publications or presentations arising from this work. More details at
     http://www.quantum-espresso.org/quote

     Parallel version (MPI), running on     1 processors

     MPI processes distributed on     1 nodes
     Waiting for input...
     Reading input from standard input

     Current dimensions of program PWSCF are:
     Max number of different atomic species (ntypx) = 10
     Max number of k-points (npk) =  40000
     Max angular momentum in pseudopotentials (lmaxx) =  3
     Message from routine volume:
     axis vectors are left-handed

     IMPORTANT: XC functional enforced from input :
     Exchange-correlation      = PBE ( 1  4  3  4 0 0)
     Any further DFT definition will be discarded
     Please, verify this is what you really want

               file Na.pbe-spn-kjpaw_psl.1.0.0.UPF: wavefunction(s)  2P renormalized
               file Cl.pbe-n-kjpaw_psl.1.0.0.UPF: wavefunction(s)  3S 3P renormalized

     Subspace diagonalization in iterative solution of the eigenvalue problem:
     a serial algorithm will be used

     Message from routine setup:
     DEPRECATED: symmetry with ibrav=0, use correct ibrav instead

     G-vector sticks info
     --------------------
     sticks:   dense  smooth     PW     G-vecs:    dense   smooth      PW
     Sum         703     559    169                12339     8801    1471



     bravais-lattice index     =            0
     lattice parameter (alat)  =      10.6591  a.u.
     unit-cell volume          =     302.7633 (a.u.)^3
     number of atoms/cell      =            2
     number of atomic types    =            2
     number of electrons       =        16.00
     number of Kohn-Sham states=           12
     kinetic-energy cutoff     =      36.0000  Ry
     charge density cutoff     =     180.0000  Ry
     convergence threshold     =      1.0E-08
     mixing beta               =       0.7000
     number of iterations used =            8  plain     mixing
     Exchange-correlation      = PBE ( 1  4  3  4 0 0)

     celldm(1)=  10.659114  celldm(2)=   0.000000  celldm(3)=   0.000000
     celldm(4)=   0.000000  celldm(5)=   0.000000  celldm(6)=   0.000000

     crystal axes: (cart. coord. in units of alat)
               a(1) = (   0.500000   0.500000   0.000000 )  
               a(2) = (   0.500000   0.000000   0.500000 )  
               a(3) = (   0.000000   0.500000   0.500000 )  

     reciprocal axes: (cart. coord. in units 2 pi/alat)
               b(1) = (  1.000000  1.000000 -1.000000 )  
               b(2) = (  1.000000 -1.000000  1.000000 )  
               b(3) = ( -1.000000  1.000000  1.000000 )  


     PseudoPot. # 1 for Na read from file:
     ./Na.pbe-spn-kjpaw_psl.1.0.0.UPF
     MD5 check sum: 05b4deb74e3932c23ab016979dc8b5d4
     Pseudo is Projector augmented-wave + core cor, Zval =  9.0
     Generated using "atomic" code by A. Dal Corso v.6.3
     Shape of augmentation charge: PSQ
     Using radial grid of 1121 points,  4 beta functions with: 
                l(1) =   0
                l(2) =   0
                l(3) =   1
                l(4) =   1
     Q(r) pseudized with 0 coefficients 


     PseudoPot. # 2 for Cl read from file:
     ./Cl.pbe-n-kjpaw_psl.1.0.0.UPF
     MD5 check sum: 530da96d25dcb7781b0586ca00827062
     Pseudo is Projector augmented-wave + core cor, Zval =  7.0
     Generated using "atomic" code by A. Dal Corso v.6.3
     Shape of augmentation charge: PSQ
     Using radial grid of 1157 points,  6 beta functions with: 
                l(1) =   0
                l(2) =   0
                l(3) =   1
                l(4) =   1
                l(5) =   2
                l(6) =   2
     Q(r) pseudized with 0 coefficients 


     atomic species   valence    mass     pseudopotential
        Na             9.00    22.98900     Na( 1.00)
        Cl             7.00    35.45150     Cl( 1.00)

     48 Sym. Ops., with inversion, found



   Cartesian axes

     site n.     atom                  positions (alat units)
         1           Cl  tau(   1) = (   0.5000000   0.5000000   0.5000000  )
         2           Na  tau(   2) = (   0.0000000   0.0000000   0.0000000  )

     number of k points=    10  Marzari-Vanderbilt smearing, width (Ry)=  0.0050
                       cart. coord. in units 2pi/alat
        k(    1) = (   0.0000000   0.0000000   0.0000000), wk =   0.0160000
        k(    2) = (  -0.2000000   0.2000000   0.2000000), wk =   0.1280000
        k(    3) = (  -0.4000000   0.4000000   0.4000000), wk =   0.1280000
        k(    4) = (   0.0000000   0.0000000   0.4000000), wk =   0.0960000
        k(    5) = (  -0.2000000   0.2000000   0.6000000), wk =   0.3840000
        k(    6) = (   0.6000000  -0.6000000  -0.2000000), wk =   0.3840000
        k(    7) = (   0.4000000  -0.4000000   0.0000000), wk =   0.1920000
        k(    8) = (   0.0000000   0.0000000   0.8000000), wk =   0.0960000
        k(    9) = (   0.8000000  -0.8000000   0.0000000), wk =   0.1920000
        k(   10) = (   1.0000000  -0.6000000  -0.2000000), wk =   0.3840000

     Dense  grid:    12339 G-vectors     FFT dimensions: (  36,  36,  36)

     Smooth grid:     8801 G-vectors     FFT dimensions: (  30,  30,  30)

     Estimated max dynamical RAM per process >      52.84 MB

     Check: negative core charge=   -0.000019

     Initial potential from superposition of free atoms

     starting charge   15.99370, renormalised to   16.00000
     Starting wfcs are    9 randomized atomic wfcs +    3 random wfcs
     Checking if some PAW data can be deallocated... 

     total cpu time spent up to now is        7.3 secs

     Self-consistent Calculation

     iteration #  1     ecut=    36.00 Ry     beta= 0.70
     Davidson diagonalization with overlap
     ethr =  1.00E-02,  avg # of iterations =  6.2

     Threshold (ethr) on eigenvalues was too large:
     Diagonalizing with lowered threshold

     Davidson diagonalization with overlap
     ethr =  3.50E-04,  avg # of iterations =  1.6

     total cpu time spent up to now is       10.9 secs

     total energy              =    -188.72726417 Ry
     Harris-Foulkes estimate   =    -188.76073939 Ry
     estimated scf accuracy    <       0.05471697 Ry

     iteration #  2     ecut=    36.00 Ry     beta= 0.70
     Davidson diagonalization with overlap
     ethr =  3.42E-04,  avg # of iterations =  2.0

     total cpu time spent up to now is       13.0 secs

     total energy              =    -188.74153373 Ry
     Harris-Foulkes estimate   =    -188.74859323 Ry
     estimated scf accuracy    <       0.01295674 Ry

     iteration #  3     ecut=    36.00 Ry     beta= 0.70
     Davidson diagonalization with overlap
     ethr =  8.10E-05,  avg # of iterations =  2.1

     total cpu time spent up to now is       15.0 secs

     total energy              =    -188.74446788 Ry
     Harris-Foulkes estimate   =    -188.74435526 Ry
     estimated scf accuracy    <       0.00029413 Ry

     iteration #  4     ecut=    36.00 Ry     beta= 0.70
     Davidson diagonalization with overlap
     ethr =  1.84E-06,  avg # of iterations =  3.8

     total cpu time spent up to now is       17.4 secs

     total energy              =    -188.74451238 Ry
     Harris-Foulkes estimate   =    -188.74451037 Ry
     estimated scf accuracy    <       0.00000175 Ry

     iteration #  5     ecut=    36.00 Ry     beta= 0.70
     Davidson diagonalization with overlap
     ethr =  1.09E-08,  avg # of iterations =  2.0

     total cpu time spent up to now is       19.6 secs

     total energy              =    -188.74451330 Ry
     Harris-Foulkes estimate   =    -188.74451312 Ry
     estimated scf accuracy    <       0.00000027 Ry

     iteration #  6     ecut=    36.00 Ry     beta= 0.70
     Davidson diagonalization with overlap
     ethr =  1.71E-09,  avg # of iterations =  2.0

     total cpu time spent up to now is       21.7 secs

     End of self-consistent calculation

          k = 0.0000 0.0000 0.0000 (  1067 PWs)   bands (ev):

   -48.3729 -19.8694 -19.8694 -19.8694 -11.6561   1.0048   1.0048   1.0048
     6.1269  12.0241  12.0241  12.0241

          k =-0.2000 0.2000 0.2000 (  1098 PWs)   bands (ev):

   -48.3738 -19.9266 -19.9078 -19.9078 -11.5437   0.2036   0.9070   0.9070
     7.2244  11.1294  12.3709  12.3709

          k =-0.4000 0.4000 0.4000 (  1107 PWs)   bands (ev):

   -48.3739 -19.9709 -19.9154 -19.9154 -11.3527  -0.7756   0.7584   0.7584
     8.2727  11.3720  12.0968  12.0968

          k = 0.0000 0.0000 0.4000 (  1106 PWs)   bands (ev):

   -48.3741 -19.9337 -19.9205 -19.9205 -11.5137   0.1955   0.7835   0.7835
     7.5733  10.5080  12.4148  12.9459

          k =-0.2000 0.2000 0.6000 (  1097 PWs)   bands (ev):

   -48.3736 -19.9359 -19.9178 -19.9138 -11.3603  -0.4598   0.5135   0.6335
     8.8048  10.2717  11.3275  13.0571

          k = 0.6000-0.6000-0.2000 (  1114 PWs)   bands (ev):

   -48.3740 -19.9684 -19.9385 -19.9285 -11.2946  -0.6668   0.2613   0.6558
     9.2220  10.7385  11.3374  12.6987

          k = 0.4000-0.4000 0.0000 (  1093 PWs)   bands (ev):

   -48.3736 -19.9206 -19.9167 -19.9092 -11.4112  -0.2858   0.4827   0.8226
     8.5102  10.6434  11.6460  12.9142

          k = 0.0000 0.0000 0.8000 (  1094 PWs)   bands (ev):

   -48.3734 -19.9301 -19.9162 -19.9162 -11.3064  -0.5514   0.4667   0.4667
     8.6642   9.2100  11.9432  15.1207

          k = 0.8000-0.8000 0.0000 (  1117 PWs)   bands (ev):

   -48.3740 -19.9747 -19.9382 -19.9362 -11.2655  -0.4742   0.0410   0.4787
     9.0601   9.7251  11.8242  14.1789

          k = 1.0000-0.6000-0.2000 (  1099 PWs)   bands (ev):

   -48.3735 -19.9465 -19.9255 -19.9125 -11.2769  -0.4107   0.0627   0.4220
     9.8160  10.2679  10.6823  13.1739

     the Fermi energy is     3.3004 ev

!    total energy              =    -188.74451338 Ry
     Harris-Foulkes estimate   =    -188.74451339 Ry
     estimated scf accuracy    <          5.4E-09 Ry

     total all-electron energy =     -1248.031528 Ry

     The total energy is the sum of the following terms:

     one-electron contribution =     -80.64091327 Ry
     hartree contribution      =      46.99439087 Ry
     xc contribution           =     -25.65419741 Ry
     ewald contribution        =     -68.79919274 Ry
     one-center paw contrib.   =     -60.64460084 Ry
     smearing contrib. (-TS)   =       0.00000000 Ry

     convergence has been achieved in   6 iterations

     Forces acting on atoms (cartesian axes, Ry/au):

     atom    1 type  2   force =     0.00000000    0.00000000    0.00000000
     atom    2 type  1   force =     0.00000000    0.00000000    0.00000000

     Total force =     0.000000     Total SCF correction =     0.000000


     Computing stress (Cartesian axis) and pressure

          total   stress  (Ry/bohr**3)                   (kbar)     P= -271.25
  -0.00184394  -0.00000000   0.00000000       -271.25     -0.00      0.00
  -0.00000000  -0.00184394   0.00000000         -0.00   -271.25      0.00
   0.00000000   0.00000000  -0.00184394          0.00      0.00   -271.25


     Writing output data file halite.save/

     init_run     :      3.00s CPU      3.06s WALL (       1 calls)
     electrons    :     14.07s CPU     14.37s WALL (       1 calls)
     forces       :      0.34s CPU      0.37s WALL (       1 calls)
     stress       :      0.79s CPU      0.83s WALL (       1 calls)

     Called by init_run:
     wfcinit      :      0.38s CPU      0.39s WALL (       1 calls)
     potinit      :      0.67s CPU      0.67s WALL (       1 calls)
     hinit0       :      1.81s CPU      1.82s WALL (       1 calls)

     Called by electrons:
     c_bands      :      7.38s CPU      7.45s WALL (       7 calls)
     sum_band     :      2.25s CPU      2.36s WALL (       7 calls)
     v_of_rho     :      0.36s CPU      0.37s WALL (       7 calls)
     newd         :      0.75s CPU      0.87s WALL (       7 calls)
     PAW_pot      :      4.00s CPU      4.01s WALL (       7 calls)
     mix_rho      :      0.03s CPU      0.03s WALL (       7 calls)

     Called by c_bands:
     init_us_2    :      0.12s CPU      0.12s WALL (     170 calls)
     cegterg      :      7.22s CPU      7.29s WALL (      70 calls)

     Called by sum_band:
     sum_band:bec :      0.00s CPU      0.00s WALL (      70 calls)
     addusdens    :      0.94s CPU      1.06s WALL (       7 calls)

     Called by *egterg:
     h_psi        :      6.12s CPU      6.18s WALL (     277 calls)
     s_psi        :      0.32s CPU      0.32s WALL (     277 calls)
     g_psi        :      0.01s CPU      0.01s WALL (     197 calls)
     cdiaghg      :      0.17s CPU      0.17s WALL (     257 calls)

     Called by h_psi:
     h_psi:pot    :      6.11s CPU      6.17s WALL (     277 calls)
     h_psi:calbec :      0.35s CPU      0.36s WALL (     277 calls)
     vloc_psi     :      5.43s CPU      5.49s WALL (     277 calls)
     add_vuspsi   :      0.32s CPU      0.32s WALL (     277 calls)

     General routines
     calbec       :      0.57s CPU      0.58s WALL (     397 calls)
     fft          :      0.29s CPU      0.29s WALL (     115 calls)
     ffts         :      0.04s CPU      0.04s WALL (      14 calls)
     fftw         :      5.86s CPU      5.92s WALL (    5440 calls)
     interpolate  :      0.05s CPU      0.05s WALL (       7 calls)

     Parallel routines

     PWSCF        :     22.46s CPU     22.94s WALL


   This run was terminated on:  18:13:22  18Feb2020            

=------------------------------------------------------------------------------=
   JOB DONE.
=------------------------------------------------------------------------------=
