     Message from routine get_command_line:
     unexpected argument # 2     :-input

     Program PWSCF v.6.4.1 starts on 18Feb2020 at  9:28:24 

     This program is part of the open-source Quantum ESPRESSO suite
     for quantum simulation of materials; please cite
         "P. Giannozzi et al., J. Phys.:Condens. Matter 21 395502 (2009);
         "P. Giannozzi et al., J. Phys.:Condens. Matter 29 465901 (2017);
          URL http://www.quantum-espresso.org", 
     in publications or presentations arising from this work. More details at
     http://www.quantum-espresso.org/quote

     Parallel version (MPI), running on     1 processors

     MPI processes distributed on     1 nodes
     Waiting for input...
     Reading input from standard input

     Current dimensions of program PWSCF are:
     Max number of different atomic species (ntypx) = 10
     Max number of k-points (npk) =  40000
     Max angular momentum in pseudopotentials (lmaxx) =  3
     Message from routine volume:
     axis vectors are left-handed

     IMPORTANT: XC functional enforced from input :
     Exchange-correlation      = PBE ( 1  4  3  4 0 0)
     Any further DFT definition will be discarded
     Please, verify this is what you really want

               file Na.pbe-spn-kjpaw_psl.1.0.0.UPF: wavefunction(s)  2P renormalized
               file Cl.pbe-n-kjpaw_psl.1.0.0.UPF: wavefunction(s)  3S 3P renormalized

     Subspace diagonalization in iterative solution of the eigenvalue problem:
     a serial algorithm will be used

     Message from routine setup:
     DEPRECATED: symmetry with ibrav=0, use correct ibrav instead

     G-vector sticks info
     --------------------
     sticks:   dense  smooth     PW     G-vecs:    dense   smooth      PW
     Sum        1057    1057    421                22659    22659    5577



     bravais-lattice index     =            0
     lattice parameter (alat)  =      10.6591  a.u.
     unit-cell volume          =     302.7633 (a.u.)^3
     number of atoms/cell      =            2
     number of atomic types    =            2
     number of electrons       =        16.00
     number of Kohn-Sham states=           12
     kinetic-energy cutoff     =      90.0000  Ry
     charge density cutoff     =     270.0000  Ry
     convergence threshold     =      1.0E-08
     mixing beta               =       0.7000
     number of iterations used =            8  plain     mixing
     Exchange-correlation      = PBE ( 1  4  3  4 0 0)

     celldm(1)=  10.659114  celldm(2)=   0.000000  celldm(3)=   0.000000
     celldm(4)=   0.000000  celldm(5)=   0.000000  celldm(6)=   0.000000

     crystal axes: (cart. coord. in units of alat)
               a(1) = (   0.500000   0.500000   0.000000 )  
               a(2) = (   0.500000   0.000000   0.500000 )  
               a(3) = (   0.000000   0.500000   0.500000 )  

     reciprocal axes: (cart. coord. in units 2 pi/alat)
               b(1) = (  1.000000  1.000000 -1.000000 )  
               b(2) = (  1.000000 -1.000000  1.000000 )  
               b(3) = ( -1.000000  1.000000  1.000000 )  


     PseudoPot. # 1 for Na read from file:
     ./Na.pbe-spn-kjpaw_psl.1.0.0.UPF
     MD5 check sum: 05b4deb74e3932c23ab016979dc8b5d4
     Pseudo is Projector augmented-wave + core cor, Zval =  9.0
     Generated using "atomic" code by A. Dal Corso v.6.3
     Shape of augmentation charge: PSQ
     Using radial grid of 1121 points,  4 beta functions with: 
                l(1) =   0
                l(2) =   0
                l(3) =   1
                l(4) =   1
     Q(r) pseudized with 0 coefficients 


     PseudoPot. # 2 for Cl read from file:
     ./Cl.pbe-n-kjpaw_psl.1.0.0.UPF
     MD5 check sum: 530da96d25dcb7781b0586ca00827062
     Pseudo is Projector augmented-wave + core cor, Zval =  7.0
     Generated using "atomic" code by A. Dal Corso v.6.3
     Shape of augmentation charge: PSQ
     Using radial grid of 1157 points,  6 beta functions with: 
                l(1) =   0
                l(2) =   0
                l(3) =   1
                l(4) =   1
                l(5) =   2
                l(6) =   2
     Q(r) pseudized with 0 coefficients 


     atomic species   valence    mass     pseudopotential
        Na             9.00    22.98900     Na( 1.00)
        Cl             7.00    35.45150     Cl( 1.00)

     48 Sym. Ops., with inversion, found



   Cartesian axes

     site n.     atom                  positions (alat units)
         1           Cl  tau(   1) = (   0.5000000   0.5000000   0.5000000  )
         2           Na  tau(   2) = (   0.0000000   0.0000000   0.0000000  )

     number of k points=    20  Marzari-Vanderbilt smearing, width (Ry)=  0.0050
                       cart. coord. in units 2pi/alat
        k(    1) = (   0.0000000   0.0000000   0.0000000), wk =   0.0058309
        k(    2) = (  -0.1428571   0.1428571   0.1428571), wk =   0.0466472
        k(    3) = (  -0.2857143   0.2857143   0.2857143), wk =   0.0466472
        k(    4) = (  -0.4285714   0.4285714   0.4285714), wk =   0.0466472
        k(    5) = (   0.0000000   0.0000000   0.2857143), wk =   0.0349854
        k(    6) = (  -0.1428571   0.1428571   0.4285714), wk =   0.1399417
        k(    7) = (  -0.2857143   0.2857143   0.5714286), wk =   0.1399417
        k(    8) = (   0.5714286  -0.5714286  -0.2857143), wk =   0.1399417
        k(    9) = (   0.4285714  -0.4285714  -0.1428571), wk =   0.1399417
        k(   10) = (   0.2857143  -0.2857143  -0.0000000), wk =   0.0699708
        k(   11) = (   0.0000000   0.0000000   0.5714286), wk =   0.0349854
        k(   12) = (  -0.1428571   0.1428571   0.7142857), wk =   0.1399417
        k(   13) = (   0.7142857  -0.7142857  -0.1428571), wk =   0.1399417
        k(   14) = (   0.5714286  -0.5714286   0.0000000), wk =   0.0699708
        k(   15) = (   0.0000000   0.0000000   0.8571429), wk =   0.0349854
        k(   16) = (   0.8571429  -0.8571429  -0.0000000), wk =   0.0699708
        k(   17) = (   0.0000000   0.2857143   0.5714286), wk =   0.1399417
        k(   18) = (   0.8571429  -0.5714286  -0.2857143), wk =   0.2798834
        k(   19) = (   1.0000000  -0.7142857  -0.1428571), wk =   0.1399417
        k(   20) = (   0.8571429  -0.5714286   0.0000000), wk =   0.1399417

     Dense  grid:    22659 G-vectors     FFT dimensions: (  40,  40,  40)

     Estimated max dynamical RAM per process >     106.99 MB

     Check: negative core charge=   -0.000006

     Initial potential from superposition of free atoms

     starting charge   15.99370, renormalised to   16.00000
     Starting wfcs are    9 randomized atomic wfcs +    3 random wfcs
     Checking if some PAW data can be deallocated... 

     total cpu time spent up to now is        9.8 secs

     Self-consistent Calculation

     iteration #  1     ecut=    90.00 Ry     beta= 0.70
     Davidson diagonalization with overlap
     ethr =  1.00E-02,  avg # of iterations =  6.0

     Threshold (ethr) on eigenvalues was too large:
     Diagonalizing with lowered threshold

     Davidson diagonalization with overlap
     ethr =  3.44E-04,  avg # of iterations =  1.2

     total cpu time spent up to now is       25.3 secs

     total energy              =    -188.83209108 Ry
     Harris-Foulkes estimate   =    -188.86428117 Ry
     estimated scf accuracy    <       0.05210797 Ry

     iteration #  2     ecut=    90.00 Ry     beta= 0.70
     Davidson diagonalization with overlap
     ethr =  3.26E-04,  avg # of iterations =  2.0

     total cpu time spent up to now is       32.6 secs

     total energy              =    -188.84702860 Ry
     Harris-Foulkes estimate   =    -188.85433772 Ry
     estimated scf accuracy    <       0.01350462 Ry

     iteration #  3     ecut=    90.00 Ry     beta= 0.70
     Davidson diagonalization with overlap
     ethr =  8.44E-05,  avg # of iterations =  2.0

     total cpu time spent up to now is       39.9 secs

     total energy              =    -188.85005090 Ry
     Harris-Foulkes estimate   =    -188.84992126 Ry
     estimated scf accuracy    <       0.00026212 Ry

     iteration #  4     ecut=    90.00 Ry     beta= 0.70
     Davidson diagonalization with overlap
     ethr =  1.64E-06,  avg # of iterations =  4.2

     total cpu time spent up to now is       49.3 secs

     total energy              =    -188.85010911 Ry
     Harris-Foulkes estimate   =    -188.85010748 Ry
     estimated scf accuracy    <       0.00000178 Ry

     iteration #  5     ecut=    90.00 Ry     beta= 0.70
     Davidson diagonalization with overlap
     ethr =  1.11E-08,  avg # of iterations =  3.0

     total cpu time spent up to now is       58.1 secs

     total energy              =    -188.85011046 Ry
     Harris-Foulkes estimate   =    -188.85011027 Ry
     estimated scf accuracy    <       0.00000010 Ry

     iteration #  6     ecut=    90.00 Ry     beta= 0.70
     Davidson diagonalization with overlap
     ethr =  6.49E-10,  avg # of iterations =  2.7

     total cpu time spent up to now is       65.5 secs

     End of self-consistent calculation

          k = 0.0000 0.0000 0.0000 (  4381 PWs)   bands (ev):

   -47.9575 -19.8691 -19.8691 -19.8691 -11.6939   0.9624   0.9624   0.9624
     6.0679  12.0027  12.0027  12.0027

          k =-0.1429 0.1429 0.1429 (  4390 PWs)   bands (ev):

   -47.9574 -19.8746 -19.8695 -19.8695 -11.6340   0.4987   0.9103   0.9103
     6.6954  11.3789  12.2335  12.2335

          k =-0.2857 0.2857 0.2857 (  4357 PWs)   bands (ev):

   -47.9571 -19.8869 -19.8704 -19.8704 -11.4945  -0.3308   0.7978   0.7978
     7.7775  10.9290  12.2076  12.2076

          k =-0.4286 0.4286 0.4286 (  4383 PWs)   bands (ev):

   -47.9568 -19.8967 -19.8711 -19.8711 -11.3776  -0.8829   0.7117   0.7117
     8.2058  11.4358  11.9103  11.9103

          k = 0.0000 0.0000 0.2857 (  4384 PWs)   bands (ev):

   -47.9573 -19.8742 -19.8706 -19.8706 -11.6160   0.4763   0.8384   0.8384
     6.8999  11.0318  12.4702  12.4702

          k =-0.1429 0.1429 0.4286 (  4372 PWs)   bands (ev):

   -47.9571 -19.8829 -19.8719 -19.8715 -11.5075  -0.1191   0.7123   0.7167
     7.8788  10.4901  11.9003  12.7263

          k =-0.2857 0.2857 0.5714 (  4374 PWs)   bands (ev):

   -47.9568 -19.8924 -19.8730 -19.8725 -11.3861  -0.6714   0.5378   0.6373
     8.6039  10.7830  11.3446  12.4274

          k = 0.5714-0.5714-0.2857 (  4354 PWs)   bands (ev):

   -47.9567 -19.8953 -19.8744 -19.8719 -11.3463  -0.8258   0.4289   0.6544
     8.7411  10.9906  11.4983  12.2280

          k = 0.4286-0.4286-0.1429 (  4357 PWs)   bands (ev):

   -47.9569 -19.8898 -19.8743 -19.8705 -11.4211  -0.5138   0.4757   0.7567
     8.5060  10.7751  11.4903  12.3974

          k = 0.2857-0.2857-0.0000 (  4369 PWs)   bands (ev):

   -47.9572 -19.8805 -19.8722 -19.8695 -11.5493   0.0612   0.6883   0.8723
     7.5113  10.8430  12.1325  12.6871

          k = 0.0000 0.0000 0.5714 (  4364 PWs)   bands (ev):

   -47.9569 -19.8834 -19.8740 -19.8740 -11.4506  -0.2602   0.5818   0.5818
     8.3410   9.7869  11.5392  13.6942

          k =-0.1429 0.1429 0.7143 (  4368 PWs)   bands (ev):

   -47.9567 -19.8878 -19.8764 -19.8750 -11.3647  -0.5227   0.3485   0.4951
     8.8729   9.6802  11.2691  13.6905

          k = 0.7143-0.7143-0.1429 (  4360 PWs)   bands (ev):

   -47.9566 -19.8891 -19.8805 -19.8742 -11.3151  -0.5383  -0.0183   0.5150
     9.2932  10.1961  11.2247  13.2196

          k = 0.5714-0.5714 0.0000 (  4367 PWs)   bands (ev):

   -47.9567 -19.8893 -19.8803 -19.8722 -11.3408  -0.4919  -0.0163   0.6286
     9.5396  10.5192  10.7892  12.8476

          k = 0.0000 0.0000 0.8571 (  4336 PWs)   bands (ev):

   -47.9566 -19.8885 -19.8767 -19.8767 -11.3292  -0.6475   0.3942   0.3942
     8.5429   9.1050  12.0210  15.2884

          k = 0.8571-0.8571-0.0000 (  4346 PWs)   bands (ev):

   -47.9565 -19.8879 -19.8797 -19.8764 -11.3071  -0.6072   0.1579   0.4026
     8.7734   9.3679  11.9833  14.4720

          k = 0.0000 0.2857 0.5714 (  4383 PWs)   bands (ev):

   -47.9568 -19.8871 -19.8760 -19.8722 -11.4117  -0.4057   0.3813   0.6429
     8.8199  10.1812  11.1203  13.1314

          k = 0.8571-0.5714-0.2857 (  4374 PWs)   bands (ev):

   -47.9566 -19.8904 -19.8783 -19.8738 -11.3328  -0.5853   0.1370   0.5248
     9.4694  10.3737  10.8483  12.8408

          k = 1.0000-0.7143-0.1429 (  4338 PWs)   bands (ev):

   -47.9565 -19.8874 -19.8789 -19.8772 -11.3152  -0.5292   0.1596   0.3308
     9.2014   9.6990  11.3284  13.5025

          k = 0.8571-0.5714 0.0000 (  4364 PWs)   bands (ev):

   -47.9565 -19.8845 -19.8839 -19.8766 -11.3011  -0.2950  -0.2314   0.3486
     9.7012  10.2219  10.9904  12.6722

     the Fermi energy is     3.5149 ev

!    total energy              =    -188.85011050 Ry
     Harris-Foulkes estimate   =    -188.85011050 Ry
     estimated scf accuracy    <          2.4E-09 Ry

     total all-electron energy =     -1248.137125 Ry

     The total energy is the sum of the following terms:

     one-electron contribution =     -80.91649710 Ry
     hartree contribution      =      47.14386283 Ry
     xc contribution           =     -25.67446884 Ry
     ewald contribution        =     -68.79919271 Ry
     one-center paw contrib.   =     -60.60381468 Ry
     smearing contrib. (-TS)   =       0.00000000 Ry

     convergence has been achieved in   6 iterations

     Forces acting on atoms (cartesian axes, Ry/au):

     atom    1 type  2   force =     0.00000000    0.00000000    0.00000000
     atom    2 type  1   force =    -0.00000000   -0.00000000   -0.00000000

     Total force =     0.000000     Total SCF correction =     0.000000


     Computing stress (Cartesian axis) and pressure

          total   stress  (Ry/bohr**3)                   (kbar)     P=    7.88
   0.00005354   0.00000000   0.00000000          7.88      0.00      0.00
   0.00000000   0.00005354   0.00000000          0.00      7.88      0.00
   0.00000000   0.00000000   0.00005354          0.00      0.00      7.88


     Writing output data file halite.save/

     init_run     :      5.36s CPU      5.46s WALL (       1 calls)
     electrons    :     54.58s CPU     55.63s WALL (       1 calls)
     forces       :      1.12s CPU      1.15s WALL (       1 calls)
     stress       :      2.29s CPU      2.38s WALL (       1 calls)

     Called by init_run:
     wfcinit      :      1.89s CPU      1.93s WALL (       1 calls)
     potinit      :      0.72s CPU      0.73s WALL (       1 calls)
     hinit0       :      2.51s CPU      2.52s WALL (       1 calls)

     Called by electrons:
     c_bands      :     40.29s CPU     40.82s WALL (       7 calls)
     sum_band     :      8.92s CPU      9.26s WALL (       7 calls)
     v_of_rho     :      0.58s CPU      0.58s WALL (       7 calls)
     newd         :      1.39s CPU      1.61s WALL (       7 calls)
     PAW_pot      :      4.18s CPU      4.21s WALL (       7 calls)
     mix_rho      :      0.05s CPU      0.05s WALL (       7 calls)

     Called by c_bands:
     init_us_2    :      0.92s CPU      0.93s WALL (     340 calls)
     cegterg      :     39.01s CPU     39.53s WALL (     140 calls)

     Called by sum_band:
     sum_band:bec :      0.01s CPU      0.01s WALL (     140 calls)
     addusdens    :      1.77s CPU      2.02s WALL (       7 calls)

     Called by *egterg:
     h_psi        :     29.56s CPU     29.95s WALL (     586 calls)
     s_psi        :      2.61s CPU      2.65s WALL (     586 calls)
     g_psi        :      0.09s CPU      0.09s WALL (     426 calls)
     cdiaghg      :      0.39s CPU      0.40s WALL (     546 calls)

     Called by h_psi:
     h_psi:pot    :     29.50s CPU     29.87s WALL (     586 calls)
     h_psi:calbec :      2.85s CPU      2.90s WALL (     586 calls)
     vloc_psi     :     24.03s CPU     24.34s WALL (     586 calls)
     add_vuspsi   :      2.60s CPU      2.63s WALL (     586 calls)

     General routines
     calbec       :      4.55s CPU      4.61s WALL (     826 calls)
     fft          :      0.44s CPU      0.44s WALL (     103 calls)
     ffts         :      0.02s CPU      0.02s WALL (       7 calls)
     fftw         :     26.50s CPU     26.84s WALL (   11018 calls)

     Parallel routines

     PWSCF        :   1m 7.75s CPU   1m 9.10s WALL


   This run was terminated on:   9:29:33  18Feb2020            

=------------------------------------------------------------------------------=
   JOB DONE.
=------------------------------------------------------------------------------=
