     Message from routine get_command_line:
     unexpected argument # 2     :-input

     Program PWSCF v.6.4.1 starts on 18Feb2020 at  8:31: 6 

     This program is part of the open-source Quantum ESPRESSO suite
     for quantum simulation of materials; please cite
         "P. Giannozzi et al., J. Phys.:Condens. Matter 21 395502 (2009);
         "P. Giannozzi et al., J. Phys.:Condens. Matter 29 465901 (2017);
          URL http://www.quantum-espresso.org", 
     in publications or presentations arising from this work. More details at
     http://www.quantum-espresso.org/quote

     Parallel version (MPI), running on     1 processors

     MPI processes distributed on     1 nodes
     Waiting for input...
     Reading input from standard input

     Current dimensions of program PWSCF are:
     Max number of different atomic species (ntypx) = 10
     Max number of k-points (npk) =  40000
     Max angular momentum in pseudopotentials (lmaxx) =  3
     Message from routine volume:
     axis vectors are left-handed

     IMPORTANT: XC functional enforced from input :
     Exchange-correlation      = PBE ( 1  4  3  4 0 0)
     Any further DFT definition will be discarded
     Please, verify this is what you really want

               file Na.pbe-spn-kjpaw_psl.1.0.0.UPF: wavefunction(s)  2P renormalized
               file Cl.pbe-n-kjpaw_psl.1.0.0.UPF: wavefunction(s)  3S 3P renormalized

     Subspace diagonalization in iterative solution of the eigenvalue problem:
     a serial algorithm will be used

     Message from routine setup:
     DEPRECATED: symmetry with ibrav=0, use correct ibrav instead

     G-vector sticks info
     --------------------
     sticks:   dense  smooth     PW     G-vecs:    dense   smooth      PW
     Sum        3463    2749    769               133763    95433   14067



     bravais-lattice index     =            0
     lattice parameter (alat)  =      10.6591  a.u.
     unit-cell volume          =     302.7633 (a.u.)^3
     number of atoms/cell      =            2
     number of atomic types    =            2
     number of electrons       =        16.00
     number of Kohn-Sham states=           12
     kinetic-energy cutoff     =     176.0000  Ry
     charge density cutoff     =     880.0000  Ry
     convergence threshold     =      1.0E-08
     mixing beta               =       0.7000
     number of iterations used =            8  plain     mixing
     Exchange-correlation      = PBE ( 1  4  3  4 0 0)

     celldm(1)=  10.659114  celldm(2)=   0.000000  celldm(3)=   0.000000
     celldm(4)=   0.000000  celldm(5)=   0.000000  celldm(6)=   0.000000

     crystal axes: (cart. coord. in units of alat)
               a(1) = (   0.500000   0.500000   0.000000 )  
               a(2) = (   0.500000   0.000000   0.500000 )  
               a(3) = (   0.000000   0.500000   0.500000 )  

     reciprocal axes: (cart. coord. in units 2 pi/alat)
               b(1) = (  1.000000  1.000000 -1.000000 )  
               b(2) = (  1.000000 -1.000000  1.000000 )  
               b(3) = ( -1.000000  1.000000  1.000000 )  


     PseudoPot. # 1 for Na read from file:
     ./Na.pbe-spn-kjpaw_psl.1.0.0.UPF
     MD5 check sum: 05b4deb74e3932c23ab016979dc8b5d4
     Pseudo is Projector augmented-wave + core cor, Zval =  9.0
     Generated using "atomic" code by A. Dal Corso v.6.3
     Shape of augmentation charge: PSQ
     Using radial grid of 1121 points,  4 beta functions with: 
                l(1) =   0
                l(2) =   0
                l(3) =   1
                l(4) =   1
     Q(r) pseudized with 0 coefficients 


     PseudoPot. # 2 for Cl read from file:
     ./Cl.pbe-n-kjpaw_psl.1.0.0.UPF
     MD5 check sum: 530da96d25dcb7781b0586ca00827062
     Pseudo is Projector augmented-wave + core cor, Zval =  7.0
     Generated using "atomic" code by A. Dal Corso v.6.3
     Shape of augmentation charge: PSQ
     Using radial grid of 1157 points,  6 beta functions with: 
                l(1) =   0
                l(2) =   0
                l(3) =   1
                l(4) =   1
                l(5) =   2
                l(6) =   2
     Q(r) pseudized with 0 coefficients 


     atomic species   valence    mass     pseudopotential
        Na             9.00    22.98900     Na( 1.00)
        Cl             7.00    35.45150     Cl( 1.00)

     48 Sym. Ops., with inversion, found



   Cartesian axes

     site n.     atom                  positions (alat units)
         1           Cl  tau(   1) = (   0.5000000   0.5000000   0.5000000  )
         2           Na  tau(   2) = (   0.0000000   0.0000000   0.0000000  )

     number of k points=    20  Marzari-Vanderbilt smearing, width (Ry)=  0.0050
                       cart. coord. in units 2pi/alat
        k(    1) = (   0.0000000   0.0000000   0.0000000), wk =   0.0058309
        k(    2) = (  -0.1428571   0.1428571   0.1428571), wk =   0.0466472
        k(    3) = (  -0.2857143   0.2857143   0.2857143), wk =   0.0466472
        k(    4) = (  -0.4285714   0.4285714   0.4285714), wk =   0.0466472
        k(    5) = (   0.0000000   0.0000000   0.2857143), wk =   0.0349854
        k(    6) = (  -0.1428571   0.1428571   0.4285714), wk =   0.1399417
        k(    7) = (  -0.2857143   0.2857143   0.5714286), wk =   0.1399417
        k(    8) = (   0.5714286  -0.5714286  -0.2857143), wk =   0.1399417
        k(    9) = (   0.4285714  -0.4285714  -0.1428571), wk =   0.1399417
        k(   10) = (   0.2857143  -0.2857143  -0.0000000), wk =   0.0699708
        k(   11) = (   0.0000000   0.0000000   0.5714286), wk =   0.0349854
        k(   12) = (  -0.1428571   0.1428571   0.7142857), wk =   0.1399417
        k(   13) = (   0.7142857  -0.7142857  -0.1428571), wk =   0.1399417
        k(   14) = (   0.5714286  -0.5714286   0.0000000), wk =   0.0699708
        k(   15) = (   0.0000000   0.0000000   0.8571429), wk =   0.0349854
        k(   16) = (   0.8571429  -0.8571429  -0.0000000), wk =   0.0699708
        k(   17) = (   0.0000000   0.2857143   0.5714286), wk =   0.1399417
        k(   18) = (   0.8571429  -0.5714286  -0.2857143), wk =   0.2798834
        k(   19) = (   1.0000000  -0.7142857  -0.1428571), wk =   0.1399417
        k(   20) = (   0.8571429  -0.5714286   0.0000000), wk =   0.1399417

     Dense  grid:   133763 G-vectors     FFT dimensions: (  72,  72,  72)

     Smooth grid:    95433 G-vectors     FFT dimensions: (  64,  64,  64)

     Estimated max dynamical RAM per process >     554.00 MB

     Initial potential from superposition of free atoms

     starting charge   15.99370, renormalised to   16.00000
     Starting wfcs are    9 randomized atomic wfcs +    3 random wfcs
     Checking if some PAW data can be deallocated... 

     total cpu time spent up to now is       17.5 secs

     Self-consistent Calculation

     iteration #  1     ecut=   176.00 Ry     beta= 0.70
     Davidson diagonalization with overlap
     ethr =  1.00E-02,  avg # of iterations =  6.0

     Threshold (ethr) on eigenvalues was too large:
     Diagonalizing with lowered threshold

     Davidson diagonalization with overlap
     ethr =  3.33E-04,  avg # of iterations =  1.1

     total cpu time spent up to now is       56.9 secs

     total energy              =    -188.83348454 Ry
     Harris-Foulkes estimate   =    -188.86481935 Ry
     estimated scf accuracy    <       0.05105450 Ry

     iteration #  2     ecut=   176.00 Ry     beta= 0.70
     Davidson diagonalization with overlap
     ethr =  3.19E-04,  avg # of iterations =  2.3

     total cpu time spent up to now is       76.9 secs

     total energy              =    -188.84743788 Ry
     Harris-Foulkes estimate   =    -188.85422049 Ry
     estimated scf accuracy    <       0.01252609 Ry

     iteration #  3     ecut=   176.00 Ry     beta= 0.70
     Davidson diagonalization with overlap
     ethr =  7.83E-05,  avg # of iterations =  2.4

     total cpu time spent up to now is       96.7 secs

     total energy              =    -188.85027218 Ry
     Harris-Foulkes estimate   =    -188.85015394 Ry
     estimated scf accuracy    <       0.00026091 Ry

     iteration #  4     ecut=   176.00 Ry     beta= 0.70
     Davidson diagonalization with overlap
     ethr =  1.63E-06,  avg # of iterations =  3.7

     total cpu time spent up to now is      120.8 secs

     total energy              =    -188.85032516 Ry
     Harris-Foulkes estimate   =    -188.85032339 Ry
     estimated scf accuracy    <       0.00000135 Ry

     iteration #  5     ecut=   176.00 Ry     beta= 0.70
     Davidson diagonalization with overlap
     ethr =  8.41E-09,  avg # of iterations =  3.2

     total cpu time spent up to now is      143.6 secs

     total energy              =    -188.85032641 Ry
     Harris-Foulkes estimate   =    -188.85032627 Ry
     estimated scf accuracy    <       0.00000009 Ry

     iteration #  6     ecut=   176.00 Ry     beta= 0.70
     Davidson diagonalization with overlap
     ethr =  5.39E-10,  avg # of iterations =  2.5

     total cpu time spent up to now is      163.0 secs

     End of self-consistent calculation

          k = 0.0000 0.0000 0.0000 ( 11935 PWs)   bands (ev):

   -47.9567 -19.8695 -19.8695 -19.8695 -11.6949   0.9616   0.9616   0.9616
     6.0644  12.0009  12.0009  12.0009

          k =-0.1429 0.1429 0.1429 ( 11936 PWs)   bands (ev):

   -47.9565 -19.8751 -19.8699 -19.8699 -11.6349   0.4978   0.9095   0.9095
     6.6920  11.3757  12.2318  12.2318

          k =-0.2857 0.2857 0.2857 ( 11906 PWs)   bands (ev):

   -47.9562 -19.8874 -19.8708 -19.8708 -11.4955  -0.3319   0.7971   0.7971
     7.7738  10.9251  12.2062  12.2062

          k =-0.4286 0.4286 0.4286 ( 11918 PWs)   bands (ev):

   -47.9559 -19.8971 -19.8715 -19.8715 -11.3786  -0.8840   0.7110   0.7110
     8.2013  11.4323  11.9088  11.9088

          k = 0.0000 0.0000 0.2857 ( 11939 PWs)   bands (ev):

   -47.9565 -19.8747 -19.8710 -19.8710 -11.6169   0.4754   0.8376   0.8376
     6.8966  11.0284  12.4684  12.4684

          k =-0.1429 0.1429 0.4286 ( 11933 PWs)   bands (ev):

   -47.9562 -19.8833 -19.8724 -19.8719 -11.5085  -0.1202   0.7115   0.7159
     7.8755  10.4860  11.8987  12.7247

          k =-0.2857 0.2857 0.5714 ( 11954 PWs)   bands (ev):

   -47.9559 -19.8928 -19.8734 -19.8729 -11.3870  -0.6725   0.5369   0.6365
     8.5999  10.7799  11.3421  12.4260

          k = 0.5714-0.5714-0.2857 ( 11947 PWs)   bands (ev):

   -47.9558 -19.8958 -19.8748 -19.8723 -11.3472  -0.8270   0.4280   0.6537
     8.7366  10.9894  11.4941  12.2266

          k = 0.4286-0.4286-0.1429 ( 11897 PWs)   bands (ev):

   -47.9560 -19.8902 -19.8748 -19.8709 -11.4220  -0.5149   0.4748   0.7560
     8.5022  10.7710  11.4888  12.3961

          k = 0.2857-0.2857-0.0000 ( 11926 PWs)   bands (ev):

   -47.9563 -19.8810 -19.8727 -19.8699 -11.5502   0.0602   0.6875   0.8716
     7.5080  10.8390  12.1310  12.6854

          k = 0.0000 0.0000 0.5714 ( 11922 PWs)   bands (ev):

   -47.9560 -19.8839 -19.8744 -19.8744 -11.4515  -0.2613   0.5810   0.5810
     8.3385   9.7826  11.5366  13.6922

          k =-0.1429 0.1429 0.7143 ( 11945 PWs)   bands (ev):

   -47.9558 -19.8883 -19.8769 -19.8755 -11.3656  -0.5239   0.3476   0.4943
     8.8710   9.6760  11.2654  13.6890

          k = 0.7143-0.7143-0.1429 ( 11942 PWs)   bands (ev):

   -47.9557 -19.8896 -19.8809 -19.8747 -11.3160  -0.5395  -0.0194   0.5142
     9.2902  10.1937  11.2199  13.2183

          k = 0.5714-0.5714 0.0000 ( 11948 PWs)   bands (ev):

   -47.9558 -19.8897 -19.8808 -19.8727 -11.3417  -0.4930  -0.0174   0.6278
     9.5353  10.5184  10.7844  12.8464

          k = 0.0000 0.0000 0.8571 ( 11938 PWs)   bands (ev):

   -47.9557 -19.8889 -19.8772 -19.8772 -11.3301  -0.6489   0.3934   0.3934
     8.5421   9.1004  12.0158  15.2860

          k = 0.8571-0.8571-0.0000 ( 11944 PWs)   bands (ev):

   -47.9556 -19.8883 -19.8802 -19.8768 -11.3080  -0.6086   0.1570   0.4018
     8.7724   9.3636  11.9779  14.4708

          k = 0.0000 0.2857 0.5714 ( 11924 PWs)   bands (ev):

   -47.9559 -19.8876 -19.8764 -19.8726 -11.4126  -0.4068   0.3804   0.6422
     8.8168  10.1768  11.1184  13.1299

          k = 0.8571-0.5714-0.2857 ( 11938 PWs)   bands (ev):

   -47.9557 -19.8909 -19.8787 -19.8742 -11.3337  -0.5865   0.1360   0.5241
     9.4654  10.3724  10.8438  12.8391

          k = 1.0000-0.7143-0.1429 ( 11934 PWs)   bands (ev):

   -47.9557 -19.8879 -19.8794 -19.8776 -11.3161  -0.5305   0.1586   0.3300
     9.2005   9.6944  11.3239  13.5006

          k = 0.8571-0.5714 0.0000 ( 11980 PWs)   bands (ev):

   -47.9556 -19.8850 -19.8843 -19.8770 -11.3020  -0.2962  -0.2325   0.3478
     9.6999  10.2180  10.9855  12.6705

     the Fermi energy is     3.5130 ev

!    total energy              =    -188.85032644 Ry
     Harris-Foulkes estimate   =    -188.85032644 Ry
     estimated scf accuracy    <          9.9E-10 Ry

     total all-electron energy =     -1248.137341 Ry

     The total energy is the sum of the following terms:

     one-electron contribution =     -80.91658512 Ry
     hartree contribution      =      47.14392414 Ry
     xc contribution           =     -25.67427416 Ry
     ewald contribution        =     -68.79919271 Ry
     one-center paw contrib.   =     -60.60419860 Ry
     smearing contrib. (-TS)   =       0.00000000 Ry

     convergence has been achieved in   6 iterations

     Forces acting on atoms (cartesian axes, Ry/au):

     atom    1 type  2   force =     0.00000000    0.00000000   -0.00000000
     atom    2 type  1   force =     0.00000000    0.00000000    0.00000000

     Total force =     0.000000     Total SCF correction =     0.000000


     Computing stress (Cartesian axis) and pressure

          total   stress  (Ry/bohr**3)                   (kbar)     P=    8.08
   0.00005490   0.00000000   0.00000000          8.08      0.00      0.00
   0.00000000   0.00005490   0.00000000          0.00      8.08      0.00
   0.00000000   0.00000000   0.00005490          0.00      0.00      8.08


     Writing output data file halite.save/

     init_run     :     12.15s CPU     12.87s WALL (       1 calls)
     electrons    :    141.34s CPU    145.96s WALL (       1 calls)
     forces       :      4.55s CPU      4.92s WALL (       1 calls)
     stress       :      9.66s CPU     10.42s WALL (       1 calls)

     Called by init_run:
     wfcinit      :      4.91s CPU      5.11s WALL (       1 calls)
     potinit      :      1.17s CPU      1.20s WALL (       1 calls)
     hinit0       :      4.70s CPU      4.91s WALL (       1 calls)

     Called by electrons:
     c_bands      :    101.69s CPU    102.37s WALL (       7 calls)
     sum_band     :     26.16s CPU     27.85s WALL (       7 calls)
     v_of_rho     :      2.94s CPU      3.00s WALL (       7 calls)
     newd         :      7.93s CPU      9.66s WALL (       7 calls)
     PAW_pot      :      4.13s CPU      4.16s WALL (       7 calls)
     mix_rho      :      0.32s CPU      0.44s WALL (       7 calls)

     Called by c_bands:
     init_us_2    :      2.50s CPU      2.53s WALL (     340 calls)
     cegterg      :     98.23s CPU     98.88s WALL (     140 calls)

     Called by sum_band:
     sum_band:bec :      0.01s CPU      0.01s WALL (     140 calls)
     addusdens    :     10.30s CPU     11.90s WALL (       7 calls)

     Called by *egterg:
     h_psi        :     72.79s CPU     73.26s WALL (     583 calls)
     s_psi        :      7.07s CPU      7.12s WALL (     583 calls)
     g_psi        :      0.26s CPU      0.26s WALL (     423 calls)
     cdiaghg      :      0.41s CPU      0.49s WALL (     543 calls)

     Called by h_psi:
     h_psi:pot    :     72.58s CPU     73.04s WALL (     583 calls)
     h_psi:calbec :      7.75s CPU      7.80s WALL (     583 calls)
     vloc_psi     :     57.75s CPU     58.13s WALL (     583 calls)
     add_vuspsi   :      7.08s CPU      7.11s WALL (     583 calls)

     General routines
     calbec       :     12.45s CPU     12.54s WALL (     823 calls)
     fft          :      2.01s CPU      2.23s WALL (     115 calls)
     ffts         :      0.07s CPU      0.07s WALL (      14 calls)
     fftw         :     54.58s CPU     54.95s WALL (   11008 calls)
     interpolate  :      0.17s CPU      0.19s WALL (       7 calls)

     Parallel routines

     PWSCF        :   2m52.32s CPU   3m 3.07s WALL


   This run was terminated on:   8:34: 9  18Feb2020            

=------------------------------------------------------------------------------=
   JOB DONE.
=------------------------------------------------------------------------------=
