     Message from routine get_command_line:
     unexpected argument # 2     :-input

     Program PWSCF v.6.4.1 starts on 18Feb2020 at  6: 2:38 

     This program is part of the open-source Quantum ESPRESSO suite
     for quantum simulation of materials; please cite
         "P. Giannozzi et al., J. Phys.:Condens. Matter 21 395502 (2009);
         "P. Giannozzi et al., J. Phys.:Condens. Matter 29 465901 (2017);
          URL http://www.quantum-espresso.org", 
     in publications or presentations arising from this work. More details at
     http://www.quantum-espresso.org/quote

     Parallel version (MPI), running on     1 processors

     MPI processes distributed on     1 nodes
     Waiting for input...
     Reading input from standard input

     Current dimensions of program PWSCF are:
     Max number of different atomic species (ntypx) = 10
     Max number of k-points (npk) =  40000
     Max angular momentum in pseudopotentials (lmaxx) =  3
     Message from routine volume:
     axis vectors are left-handed

     IMPORTANT: XC functional enforced from input :
     Exchange-correlation      = PBE ( 1  4  3  4 0 0)
     Any further DFT definition will be discarded
     Please, verify this is what you really want

               file Na.pbe-spn-kjpaw_psl.1.0.0.UPF: wavefunction(s)  2P renormalized
               file Cl.pbe-n-kjpaw_psl.1.0.0.UPF: wavefunction(s)  3S 3P renormalized

     Subspace diagonalization in iterative solution of the eigenvalue problem:
     a serial algorithm will be used

     Message from routine setup:
     DEPRECATED: symmetry with ibrav=0, use correct ibrav instead

     G-vector sticks info
     --------------------
     sticks:   dense  smooth     PW     G-vecs:    dense   smooth      PW
     Sum        1261    1039    301                29627    22075    3383



     bravais-lattice index     =            0
     lattice parameter (alat)  =      10.6591  a.u.
     unit-cell volume          =     302.7633 (a.u.)^3
     number of atoms/cell      =            2
     number of atomic types    =            2
     number of electrons       =        16.00
     number of Kohn-Sham states=           12
     kinetic-energy cutoff     =      66.0000  Ry
     charge density cutoff     =     323.0000  Ry
     convergence threshold     =      1.0E-08
     mixing beta               =       0.7000
     number of iterations used =            8  plain     mixing
     Exchange-correlation      = PBE ( 1  4  3  4 0 0)

     celldm(1)=  10.659114  celldm(2)=   0.000000  celldm(3)=   0.000000
     celldm(4)=   0.000000  celldm(5)=   0.000000  celldm(6)=   0.000000

     crystal axes: (cart. coord. in units of alat)
               a(1) = (   0.500000   0.500000   0.000000 )  
               a(2) = (   0.500000   0.000000   0.500000 )  
               a(3) = (   0.000000   0.500000   0.500000 )  

     reciprocal axes: (cart. coord. in units 2 pi/alat)
               b(1) = (  1.000000  1.000000 -1.000000 )  
               b(2) = (  1.000000 -1.000000  1.000000 )  
               b(3) = ( -1.000000  1.000000  1.000000 )  


     PseudoPot. # 1 for Na read from file:
     ./Na.pbe-spn-kjpaw_psl.1.0.0.UPF
     MD5 check sum: 05b4deb74e3932c23ab016979dc8b5d4
     Pseudo is Projector augmented-wave + core cor, Zval =  9.0
     Generated using "atomic" code by A. Dal Corso v.6.3
     Shape of augmentation charge: PSQ
     Using radial grid of 1121 points,  4 beta functions with: 
                l(1) =   0
                l(2) =   0
                l(3) =   1
                l(4) =   1
     Q(r) pseudized with 0 coefficients 


     PseudoPot. # 2 for Cl read from file:
     ./Cl.pbe-n-kjpaw_psl.1.0.0.UPF
     MD5 check sum: 530da96d25dcb7781b0586ca00827062
     Pseudo is Projector augmented-wave + core cor, Zval =  7.0
     Generated using "atomic" code by A. Dal Corso v.6.3
     Shape of augmentation charge: PSQ
     Using radial grid of 1157 points,  6 beta functions with: 
                l(1) =   0
                l(2) =   0
                l(3) =   1
                l(4) =   1
                l(5) =   2
                l(6) =   2
     Q(r) pseudized with 0 coefficients 


     atomic species   valence    mass     pseudopotential
        Na             9.00    22.98900     Na( 1.00)
        Cl             7.00    35.45150     Cl( 1.00)

     48 Sym. Ops., with inversion, found



   Cartesian axes

     site n.     atom                  positions (alat units)
         1           Cl  tau(   1) = (   0.5000000   0.5000000   0.5000000  )
         2           Na  tau(   2) = (   0.0000000   0.0000000   0.0000000  )

     number of k points=     4  Marzari-Vanderbilt smearing, width (Ry)=  0.0050
                       cart. coord. in units 2pi/alat
        k(    1) = (   0.0000000   0.0000000   0.0000000), wk =   0.0740741
        k(    2) = (  -0.3333333   0.3333333   0.3333333), wk =   0.5925926
        k(    3) = (   0.0000000   0.0000000   0.6666667), wk =   0.4444444
        k(    4) = (   0.6666667  -0.6666667  -0.0000000), wk =   0.8888889

     Dense  grid:    29627 G-vectors     FFT dimensions: (  45,  45,  45)

     Smooth grid:    22075 G-vectors     FFT dimensions: (  40,  40,  40)

     Estimated max dynamical RAM per process >     118.78 MB

     Check: negative core charge=   -0.000001

     Initial potential from superposition of free atoms

     starting charge   15.99370, renormalised to   16.00000
     Starting wfcs are    9 randomized atomic wfcs +    3 random wfcs
     Checking if some PAW data can be deallocated... 

     total cpu time spent up to now is        8.4 secs

     Self-consistent Calculation

     iteration #  1     ecut=    66.00 Ry     beta= 0.70
     Davidson diagonalization with overlap
     ethr =  1.00E-02,  avg # of iterations =  8.2

     Threshold (ethr) on eigenvalues was too large:
     Diagonalizing with lowered threshold

     Davidson diagonalization with overlap
     ethr =  3.32E-04,  avg # of iterations =  1.0

     total cpu time spent up to now is       12.5 secs

     total energy              =    -188.82833487 Ry
     Harris-Foulkes estimate   =    -188.86026050 Ry
     estimated scf accuracy    <       0.05207543 Ry

     iteration #  2     ecut=    66.00 Ry     beta= 0.70
     Davidson diagonalization with overlap
     ethr =  3.25E-04,  avg # of iterations =  2.0

     total cpu time spent up to now is       14.9 secs

     total energy              =    -188.84226728 Ry
     Harris-Foulkes estimate   =    -188.84894158 Ry
     estimated scf accuracy    <       0.01226818 Ry

     iteration #  3     ecut=    66.00 Ry     beta= 0.70
     Davidson diagonalization with overlap
     ethr =  7.67E-05,  avg # of iterations =  2.0

     total cpu time spent up to now is       17.2 secs

     total energy              =    -188.84505355 Ry
     Harris-Foulkes estimate   =    -188.84492905 Ry
     estimated scf accuracy    <       0.00026329 Ry

     iteration #  4     ecut=    66.00 Ry     beta= 0.70
     Davidson diagonalization with overlap
     ethr =  1.65E-06,  avg # of iterations =  3.5

     total cpu time spent up to now is       19.9 secs

     total energy              =    -188.84510855 Ry
     Harris-Foulkes estimate   =    -188.84510743 Ry
     estimated scf accuracy    <       0.00000242 Ry

     iteration #  5     ecut=    66.00 Ry     beta= 0.70
     Davidson diagonalization with overlap
     ethr =  1.51E-08,  avg # of iterations =  3.0

     total cpu time spent up to now is       22.5 secs

     total energy              =    -188.84510978 Ry
     Harris-Foulkes estimate   =    -188.84511078 Ry
     estimated scf accuracy    <       0.00000199 Ry

     iteration #  6     ecut=    66.00 Ry     beta= 0.70
     Davidson diagonalization with overlap
     ethr =  1.24E-08,  avg # of iterations =  2.0

     total cpu time spent up to now is       24.7 secs

     total energy              =    -188.84510970 Ry
     Harris-Foulkes estimate   =    -188.84510994 Ry
     estimated scf accuracy    <       0.00000029 Ry

     iteration #  7     ecut=    66.00 Ry     beta= 0.70
     Davidson diagonalization with overlap
     ethr =  1.80E-09,  avg # of iterations =  3.0

     total cpu time spent up to now is       27.5 secs

     total energy              =    -188.84510985 Ry
     Harris-Foulkes estimate   =    -188.84510988 Ry
     estimated scf accuracy    <       0.00000005 Ry

     iteration #  8     ecut=    66.00 Ry     beta= 0.70
     Davidson diagonalization with overlap
     ethr =  2.82E-10,  avg # of iterations =  3.0

     total cpu time spent up to now is       30.3 secs

     End of self-consistent calculation

          k = 0.0000 0.0000 0.0000 (  2733 PWs)   bands (ev):

   -47.9627 -19.8721 -19.8721 -19.8721 -11.6745   0.9798   0.9798   0.9798
     6.0727  12.0077  12.0077  12.0077

          k =-0.3333 0.3333 0.3333 (  2761 PWs)   bands (ev):

   -47.9621 -19.8942 -19.8740 -19.8740 -11.4273  -0.5520   0.7791   0.7791
     8.0156  11.0349  12.1023  12.1023

          k = 0.0000 0.0000 0.6667 (  2754 PWs)   bands (ev):

   -47.9619 -19.8889 -19.8784 -19.8784 -11.3794  -0.4219   0.5197   0.5197
     8.5839   9.4904  11.4914  14.2205

          k = 0.6667-0.6667-0.0000 (  2736 PWs)   bands (ev):

   -47.9617 -19.8901 -19.8863 -19.8768 -11.2917  -0.3463  -0.2435   0.5552
     9.5091  10.2857  11.1415  13.2116

     the Fermi energy is     2.6462 ev

!    total energy              =    -188.84510986 Ry
     Harris-Foulkes estimate   =    -188.84510986 Ry
     estimated scf accuracy    <          7.2E-10 Ry

     total all-electron energy =     -1248.132125 Ry

     The total energy is the sum of the following terms:

     one-electron contribution =     -80.91441439 Ry
     hartree contribution      =      47.14669354 Ry
     xc contribution           =     -25.67715383 Ry
     ewald contribution        =     -68.79919271 Ry
     one-center paw contrib.   =     -60.60104247 Ry
     smearing contrib. (-TS)   =       0.00000000 Ry

     convergence has been achieved in   8 iterations

     Forces acting on atoms (cartesian axes, Ry/au):

     atom    1 type  2   force =     0.00000000    0.00000000    0.00000000
     atom    2 type  1   force =     0.00000000    0.00000000    0.00000000

     Total force =     0.000000     Total SCF correction =     0.000000


     Computing stress (Cartesian axis) and pressure

          total   stress  (Ry/bohr**3)                   (kbar)     P=    3.02
   0.00002055   0.00000000   0.00000000          3.02      0.00      0.00
   0.00000000   0.00002055   0.00000000          0.00      3.02      0.00
   0.00000000   0.00000000   0.00002055          0.00      0.00      3.02


     Writing output data file halite.save/

     init_run     :      3.99s CPU      4.05s WALL (       1 calls)
     electrons    :     21.15s CPU     21.90s WALL (       1 calls)
     forces       :      0.74s CPU      0.81s WALL (       1 calls)
     stress       :      1.81s CPU      1.93s WALL (       1 calls)

     Called by init_run:
     wfcinit      :      0.31s CPU      0.31s WALL (       1 calls)
     potinit      :      0.79s CPU      0.79s WALL (       1 calls)
     hinit0       :      2.55s CPU      2.56s WALL (       1 calls)

     Called by electrons:
     c_bands      :      8.07s CPU      8.11s WALL (       9 calls)
     sum_band     :      4.78s CPU      5.13s WALL (       9 calls)
     v_of_rho     :      0.99s CPU      1.00s WALL (       9 calls)
     newd         :      2.42s CPU      2.76s WALL (       9 calls)
     PAW_pot      :      5.62s CPU      5.66s WALL (       9 calls)
     mix_rho      :      0.12s CPU      0.12s WALL (       9 calls)

     Called by c_bands:
     init_us_2    :      0.15s CPU      0.15s WALL (      84 calls)
     cegterg      :      7.86s CPU      7.90s WALL (      36 calls)

     Called by sum_band:
     sum_band:bec :      0.00s CPU      0.00s WALL (      36 calls)
     addusdens    :      3.08s CPU      3.43s WALL (       9 calls)

     Called by *egterg:
     h_psi        :      6.29s CPU      6.32s WALL (     151 calls)
     s_psi        :      0.43s CPU      0.43s WALL (     151 calls)
     g_psi        :      0.02s CPU      0.02s WALL (     111 calls)
     cdiaghg      :      0.10s CPU      0.10s WALL (     143 calls)

     Called by h_psi:
     h_psi:pot    :      6.28s CPU      6.31s WALL (     151 calls)
     h_psi:calbec :      0.45s CPU      0.46s WALL (     151 calls)
     vloc_psi     :      5.41s CPU      5.44s WALL (     151 calls)
     add_vuspsi   :      0.42s CPU      0.42s WALL (     151 calls)

     General routines
     calbec       :      0.73s CPU      0.73s WALL (     207 calls)
     fft          :      0.70s CPU      0.71s WALL (     141 calls)
     ffts         :      0.09s CPU      0.09s WALL (      18 calls)
     fftw         :      5.89s CPU      5.92s WALL (    2802 calls)
     interpolate  :      0.12s CPU      0.12s WALL (       9 calls)

     Parallel routines

     PWSCF        :     32.05s CPU     33.08s WALL


   This run was terminated on:   6: 3:11  18Feb2020            

=------------------------------------------------------------------------------=
   JOB DONE.
=------------------------------------------------------------------------------=
