     Message from routine get_command_line:
     unexpected argument # 2     :-input

     Program PWSCF v.6.4.1 starts on 18Feb2020 at 18:34:55 

     This program is part of the open-source Quantum ESPRESSO suite
     for quantum simulation of materials; please cite
         "P. Giannozzi et al., J. Phys.:Condens. Matter 21 395502 (2009);
         "P. Giannozzi et al., J. Phys.:Condens. Matter 29 465901 (2017);
          URL http://www.quantum-espresso.org", 
     in publications or presentations arising from this work. More details at
     http://www.quantum-espresso.org/quote

     Parallel version (MPI), running on     1 processors

     MPI processes distributed on     1 nodes
     Waiting for input...
     Reading input from standard input

     Current dimensions of program PWSCF are:
     Max number of different atomic species (ntypx) = 10
     Max number of k-points (npk) =  40000
     Max angular momentum in pseudopotentials (lmaxx) =  3
     Message from routine volume:
     axis vectors are left-handed

     IMPORTANT: XC functional enforced from input :
     Exchange-correlation      = PBE ( 1  4  3  4 0 0)
     Any further DFT definition will be discarded
     Please, verify this is what you really want

               file Na.pbe-spn-kjpaw_psl.1.0.0.UPF: wavefunction(s)  2P renormalized
               file Cl.pbe-n-kjpaw_psl.1.0.0.UPF: wavefunction(s)  3S 3P renormalized

     Subspace diagonalization in iterative solution of the eigenvalue problem:
     a serial algorithm will be used

     Message from routine setup:
     DEPRECATED: symmetry with ibrav=0, use correct ibrav instead

     G-vector sticks info
     --------------------
     sticks:   dense  smooth     PW     G-vecs:    dense   smooth      PW
     Sum        2077    1663    475                62487    44735    6855



     bravais-lattice index     =            0
     lattice parameter (alat)  =      10.6591  a.u.
     unit-cell volume          =     302.7633 (a.u.)^3
     number of atoms/cell      =            2
     number of atomic types    =            2
     number of electrons       =        16.00
     number of Kohn-Sham states=           12
     kinetic-energy cutoff     =     106.0000  Ry
     charge density cutoff     =     530.0000  Ry
     convergence threshold     =      1.0E-08
     mixing beta               =       0.7000
     number of iterations used =            8  plain     mixing
     Exchange-correlation      = PBE ( 1  4  3  4 0 0)

     celldm(1)=  10.659114  celldm(2)=   0.000000  celldm(3)=   0.000000
     celldm(4)=   0.000000  celldm(5)=   0.000000  celldm(6)=   0.000000

     crystal axes: (cart. coord. in units of alat)
               a(1) = (   0.500000   0.500000   0.000000 )  
               a(2) = (   0.500000   0.000000   0.500000 )  
               a(3) = (   0.000000   0.500000   0.500000 )  

     reciprocal axes: (cart. coord. in units 2 pi/alat)
               b(1) = (  1.000000  1.000000 -1.000000 )  
               b(2) = (  1.000000 -1.000000  1.000000 )  
               b(3) = ( -1.000000  1.000000  1.000000 )  


     PseudoPot. # 1 for Na read from file:
     ./Na.pbe-spn-kjpaw_psl.1.0.0.UPF
     MD5 check sum: 05b4deb74e3932c23ab016979dc8b5d4
     Pseudo is Projector augmented-wave + core cor, Zval =  9.0
     Generated using "atomic" code by A. Dal Corso v.6.3
     Shape of augmentation charge: PSQ
     Using radial grid of 1121 points,  4 beta functions with: 
                l(1) =   0
                l(2) =   0
                l(3) =   1
                l(4) =   1
     Q(r) pseudized with 0 coefficients 


     PseudoPot. # 2 for Cl read from file:
     ./Cl.pbe-n-kjpaw_psl.1.0.0.UPF
     MD5 check sum: 530da96d25dcb7781b0586ca00827062
     Pseudo is Projector augmented-wave + core cor, Zval =  7.0
     Generated using "atomic" code by A. Dal Corso v.6.3
     Shape of augmentation charge: PSQ
     Using radial grid of 1157 points,  6 beta functions with: 
                l(1) =   0
                l(2) =   0
                l(3) =   1
                l(4) =   1
                l(5) =   2
                l(6) =   2
     Q(r) pseudized with 0 coefficients 


     atomic species   valence    mass     pseudopotential
        Na             9.00    22.98900     Na( 1.00)
        Cl             7.00    35.45150     Cl( 1.00)

     48 Sym. Ops., with inversion, found



   Cartesian axes

     site n.     atom                  positions (alat units)
         1           Cl  tau(   1) = (   0.5000000   0.5000000   0.5000000  )
         2           Na  tau(   2) = (   0.0000000   0.0000000   0.0000000  )

     number of k points=    35  Marzari-Vanderbilt smearing, width (Ry)=  0.0050
                       cart. coord. in units 2pi/alat
        k(    1) = (   0.0000000   0.0000000   0.0000000), wk =   0.0027435
        k(    2) = (  -0.1111111   0.1111111   0.1111111), wk =   0.0219479
        k(    3) = (  -0.2222222   0.2222222   0.2222222), wk =   0.0219479
        k(    4) = (  -0.3333333   0.3333333   0.3333333), wk =   0.0219479
        k(    5) = (  -0.4444444   0.4444444   0.4444444), wk =   0.0219479
        k(    6) = (   0.0000000   0.0000000   0.2222222), wk =   0.0164609
        k(    7) = (  -0.1111111   0.1111111   0.3333333), wk =   0.0658436
        k(    8) = (  -0.2222222   0.2222222   0.4444444), wk =   0.0658436
        k(    9) = (  -0.3333333   0.3333333   0.5555556), wk =   0.0658436
        k(   10) = (   0.5555556  -0.5555556  -0.3333333), wk =   0.0658436
        k(   11) = (   0.4444444  -0.4444444  -0.2222222), wk =   0.0658436
        k(   12) = (   0.3333333  -0.3333333  -0.1111111), wk =   0.0658436
        k(   13) = (   0.2222222  -0.2222222  -0.0000000), wk =   0.0329218
        k(   14) = (   0.0000000   0.0000000   0.4444444), wk =   0.0164609
        k(   15) = (  -0.1111111   0.1111111   0.5555556), wk =   0.0658436
        k(   16) = (  -0.2222222   0.2222222   0.6666667), wk =   0.0658436
        k(   17) = (   0.6666667  -0.6666667  -0.2222222), wk =   0.0658436
        k(   18) = (   0.5555556  -0.5555556  -0.1111111), wk =   0.0658436
        k(   19) = (   0.4444444  -0.4444444   0.0000000), wk =   0.0329218
        k(   20) = (   0.0000000   0.0000000   0.6666667), wk =   0.0164609
        k(   21) = (  -0.1111111   0.1111111   0.7777778), wk =   0.0658436
        k(   22) = (   0.7777778  -0.7777778  -0.1111111), wk =   0.0658436
        k(   23) = (   0.6666667  -0.6666667  -0.0000000), wk =   0.0329218
        k(   24) = (   0.0000000   0.0000000   0.8888889), wk =   0.0164609
        k(   25) = (   0.8888889  -0.8888889   0.0000000), wk =   0.0329218
        k(   26) = (   0.0000000   0.2222222   0.4444444), wk =   0.0658436
        k(   27) = (  -0.1111111   0.3333333   0.5555556), wk =   0.1316872
        k(   28) = (   0.7777778  -0.5555556  -0.3333333), wk =   0.1316872
        k(   29) = (   0.0000000   0.2222222   0.6666667), wk =   0.0658436
        k(   30) = (   0.8888889  -0.6666667  -0.2222222), wk =   0.1316872
        k(   31) = (   0.7777778  -0.5555556  -0.1111111), wk =   0.1316872
        k(   32) = (   0.6666667  -0.4444444   0.0000000), wk =   0.0658436
        k(   33) = (   1.0000000  -0.7777778  -0.1111111), wk =   0.0658436
        k(   34) = (   0.8888889  -0.6666667  -0.0000000), wk =   0.0658436
        k(   35) = (   1.0000000  -0.5555556  -0.1111111), wk =   0.0658436

     Dense  grid:    62487 G-vectors     FFT dimensions: (  60,  60,  60)

     Smooth grid:    44735 G-vectors     FFT dimensions: (  50,  50,  50)

     Estimated max dynamical RAM per process >     279.49 MB

     Initial potential from superposition of free atoms

     starting charge   15.99370, renormalised to   16.00000
     Starting wfcs are    9 randomized atomic wfcs +    3 random wfcs
     Checking if some PAW data can be deallocated... 

     total cpu time spent up to now is       13.9 secs

     Self-consistent Calculation

     iteration #  1     ecut=   106.00 Ry     beta= 0.70
     Davidson diagonalization with overlap
     ethr =  1.00E-02,  avg # of iterations =  5.7

     Threshold (ethr) on eigenvalues was too large:
     Diagonalizing with lowered threshold

     Davidson diagonalization with overlap
     ethr =  3.40E-04,  avg # of iterations =  1.3

     total cpu time spent up to now is       45.2 secs

     total energy              =    -188.83257505 Ry
     Harris-Foulkes estimate   =    -188.86436240 Ry
     estimated scf accuracy    <       0.05160839 Ry

     iteration #  2     ecut=   106.00 Ry     beta= 0.70
     Davidson diagonalization with overlap
     ethr =  3.23E-04,  avg # of iterations =  2.1

     total cpu time spent up to now is       60.5 secs

     total energy              =    -188.84705671 Ry
     Harris-Foulkes estimate   =    -188.85412712 Ry
     estimated scf accuracy    <       0.01305020 Ry

     iteration #  3     ecut=   106.00 Ry     beta= 0.70
     Davidson diagonalization with overlap
     ethr =  8.16E-05,  avg # of iterations =  2.2

     total cpu time spent up to now is       75.5 secs

     total energy              =    -188.84999066 Ry
     Harris-Foulkes estimate   =    -188.84986636 Ry
     estimated scf accuracy    <       0.00026150 Ry

     iteration #  4     ecut=   106.00 Ry     beta= 0.70
     Davidson diagonalization with overlap
     ethr =  1.63E-06,  avg # of iterations =  3.8

     total cpu time spent up to now is       94.5 secs

     total energy              =    -188.85004574 Ry
     Harris-Foulkes estimate   =    -188.85004411 Ry
     estimated scf accuracy    <       0.00000160 Ry

     iteration #  5     ecut=   106.00 Ry     beta= 0.70
     Davidson diagonalization with overlap
     ethr =  9.98E-09,  avg # of iterations =  3.1

     total cpu time spent up to now is      112.4 secs

     total energy              =    -188.85004710 Ry
     Harris-Foulkes estimate   =    -188.85004691 Ry
     estimated scf accuracy    <       0.00000011 Ry

     iteration #  6     ecut=   106.00 Ry     beta= 0.70
     Davidson diagonalization with overlap
     ethr =  6.94E-10,  avg # of iterations =  2.4

     total cpu time spent up to now is      127.7 secs

     End of self-consistent calculation

          k = 0.0000 0.0000 0.0000 (  5601 PWs)   bands (ev):

   -47.9568 -19.8695 -19.8695 -19.8695 -11.6946   0.9618   0.9618   0.9618
     6.0650  12.0013  12.0013  12.0013

          k =-0.1111 0.1111 0.1111 (  5636 PWs)   bands (ev):

   -47.9568 -19.8729 -19.8697 -19.8697 -11.6574   0.6637   0.9293   0.9293
     6.4662  11.5670  12.1575  12.1575

          k =-0.2222 0.2222 0.2222 (  5606 PWs)   bands (ev):

   -47.9565 -19.8816 -19.8704 -19.8704 -11.5613   0.0308   0.8492   0.8492
     7.3277  11.0046  12.3100  12.3100

          k =-0.3333 0.3333 0.3333 (  5594 PWs)   bands (ev):

   -47.9563 -19.8913 -19.8711 -19.8711 -11.4479  -0.5662   0.7617   0.7617
     8.0054  11.0243  12.0917  12.0917

          k =-0.4444 0.4444 0.4444 (  5576 PWs)   bands (ev):

   -47.9561 -19.8976 -19.8715 -19.8715 -11.3714  -0.9133   0.7064   0.7064
     8.2130  11.4909  11.8912  11.8912

          k = 0.0000 0.0000 0.2222 (  5617 PWs)   bands (ev):

   -47.9567 -19.8728 -19.8704 -19.8704 -11.6458   0.6429   0.8840   0.8840
     6.5973  11.3361  12.2884  12.2884

          k =-0.1111 0.1111 0.3333 (  5600 PWs)   bands (ev):

   -47.9565 -19.8790 -19.8714 -19.8709 -11.5713   0.1789   0.7956   0.8107
     7.3136  10.8113  12.2999  12.5531

          k =-0.2222 0.2222 0.4444 (  5578 PWs)   bands (ev):

   -47.9563 -19.8878 -19.8722 -19.8717 -11.4657  -0.3782   0.7000   0.7077
     8.1131  10.6596  11.7745  12.4631

          k =-0.3333 0.3333 0.5556 (  5561 PWs)   bands (ev):

   -47.9561 -19.8948 -19.8727 -19.8724 -11.3779  -0.7727   0.5889   0.6594
     8.4848  11.0531  11.5156  12.2083

          k = 0.5556-0.5556-0.3333 (  5574 PWs)   bands (ev):

   -47.9560 -19.8968 -19.8736 -19.8720 -11.3521  -0.8780   0.5282   0.6706
     8.5483  11.1899  11.6183  12.0876

          k = 0.4444-0.4444-0.2222 (  5581 PWs)   bands (ev):

   -47.9561 -19.8929 -19.8737 -19.8711 -11.4018  -0.6653   0.5461   0.7368
     8.4388  10.9985  11.5779  12.1914

          k = 0.3333-0.3333-0.1111 (  5577 PWs)   bands (ev):

   -47.9564 -19.8851 -19.8730 -19.8702 -11.5011  -0.2044   0.6431   0.8301
     7.8882  10.7522  11.9745  12.4959

          k = 0.2222-0.2222-0.0000 (  5597 PWs)   bands (ev):

   -47.9566 -19.8771 -19.8714 -19.8696 -11.6013   0.3269   0.7957   0.9074
     7.0264  11.1036  12.2679  12.4170

          k = 0.0000 0.0000 0.4444 (  5589 PWs)   bands (ev):

   -47.9564 -19.8799 -19.8728 -19.8728 -11.5268   0.0397   0.6979   0.6979
     7.7483  10.2846  12.0242  13.0769

          k =-0.1111 0.1111 0.5556 (  5582 PWs)   bands (ev):

   -47.9562 -19.8851 -19.8740 -19.8739 -11.4471  -0.2980   0.5620   0.6043
     8.4138   9.9801  11.4433  13.2701

          k =-0.2222 0.2222 0.6667 (  5580 PWs)   bands (ev):

   -47.9560 -19.8903 -19.8759 -19.8743 -11.3683  -0.5756   0.3565   0.5557
     8.9349  10.2189  11.0730  13.0045

          k = 0.6667-0.6667-0.2222 (  5583 PWs)   bands (ev):

   -47.9559 -19.8925 -19.8780 -19.8736 -11.3288  -0.6753   0.1735   0.5720
     9.1872  10.4628  11.2285  12.7413

          k = 0.5556-0.5556-0.1111 (  5577 PWs)   bands (ev):

   -47.9560 -19.8914 -19.8787 -19.8723 -11.3485  -0.5941   0.1351   0.6467
     9.2735  10.6664  10.9456  12.6467

          k = 0.4444-0.4444 0.0000 (  5584 PWs)   bands (ev):

   -47.9562 -19.8884 -19.8768 -19.8710 -11.4172  -0.4187   0.3226   0.7485
     8.7688  10.5780  11.2478  12.7010

          k = 0.0000 0.0000 0.6667 (  5582 PWs)   bands (ev):

   -47.9561 -19.8861 -19.8755 -19.8755 -11.4002  -0.4368   0.5027   0.5027
     8.5767   9.4835  11.4777  14.2086

          k =-0.1111 0.1111 0.7778 (  5583 PWs)   bands (ev):

   -47.9559 -19.8882 -19.8775 -19.8762 -11.3466  -0.5681   0.3306   0.4477
     8.7871   9.4210  11.5354  14.1773

          k = 0.7778-0.7778-0.1111 (  5571 PWs)   bands (ev):

   -47.9558 -19.8880 -19.8815 -19.8756 -11.3119  -0.5259   0.0041   0.4612
     9.0888   9.8587  11.4720  13.7032

          k = 0.6667-0.6667-0.0000 (  5558 PWs)   bands (ev):

   -47.9559 -19.8875 -19.8837 -19.8741 -11.3127  -0.3610  -0.2590   0.5382
     9.5001  10.2767  11.1287  13.1975

          k = 0.0000 0.0000 0.8889 (  5558 PWs)   bands (ev):

   -47.9558 -19.8891 -19.8773 -19.8773 -11.3232  -0.6666   0.3833   0.3833
     8.5178   9.0670  12.1152  15.4471

          k = 0.8889-0.8889 0.0000 (  5568 PWs)   bands (ev):

   -47.9558 -19.8887 -19.8792 -19.8771 -11.3095  -0.6418   0.2344   0.3885
     8.6689   9.2242  12.0931  14.7492

          k = 0.0000 0.2222 0.4444 (  5573 PWs)   bands (ev):

   -47.9563 -19.8836 -19.8739 -19.8712 -11.4939  -0.1494   0.5856   0.7600
     8.0436  10.4252  11.7491  13.0281

          k =-0.1111 0.3333 0.5556 (  5573 PWs)   bands (ev):

   -47.9561 -19.8894 -19.8758 -19.8722 -11.4034  -0.4938   0.3948   0.6678
     8.7918  10.4600  11.1439  12.7623

          k = 0.7778-0.5556-0.3333 (  5580 PWs)   bands (ev):

   -47.9560 -19.8934 -19.8765 -19.8731 -11.3429  -0.7101   0.2944   0.5944
     9.0705  10.6588  11.1736  12.5356

          k = 0.0000 0.2222 0.6667 (  5593 PWs)   bands (ev):

   -47.9560 -19.8876 -19.8768 -19.8746 -11.3817  -0.4701   0.3667   0.5192
     8.9411   9.7921  11.1076  13.5744

          k = 0.8889-0.6667-0.2222 (  5590 PWs)   bands (ev):

   -47.9559 -19.8890 -19.8792 -19.8756 -11.3282  -0.5328   0.1240   0.4432
     9.3763  10.0748  10.9054  13.2233

          k = 0.7778-0.5556-0.1111 (  5582 PWs)   bands (ev):

   -47.9559 -19.8889 -19.8813 -19.8751 -11.3127  -0.4821  -0.0686   0.4636
     9.7225  10.1764  10.9708  12.8543

          k = 0.6667-0.4444 0.0000 (  5566 PWs)   bands (ev):

   -47.9560 -19.8893 -19.8800 -19.8735 -11.3427  -0.4929   0.0539   0.5609
     9.6541  10.4390  10.4982  12.9457

          k = 1.0000-0.7778-0.1111 (  5581 PWs)   bands (ev):

   -47.9558 -19.8882 -19.8787 -19.8778 -11.3149  -0.5820   0.2334   0.3300
     8.9342   9.4430  11.6910  13.9232

          k = 0.8889-0.6667-0.0000 (  5566 PWs)   bands (ev):

   -47.9558 -19.8861 -19.8827 -19.8772 -11.3015  -0.4442  -0.0588   0.3454
     9.3163   9.9204  11.4195  13.0807

          k = 1.0000-0.5556-0.1111 (  5574 PWs)   bands (ev):

   -47.9558 -19.8859 -19.8822 -19.8781 -11.3019  -0.3573  -0.1075   0.2809
     9.7671  10.3766  10.6918  12.6000

     the Fermi energy is     3.6439 ev

!    total energy              =    -188.85004714 Ry
     Harris-Foulkes estimate   =    -188.85004714 Ry
     estimated scf accuracy    <          2.4E-09 Ry

     total all-electron energy =     -1248.137062 Ry

     The total energy is the sum of the following terms:

     one-electron contribution =     -80.91624896 Ry
     hartree contribution      =      47.14362234 Ry
     xc contribution           =     -25.67418685 Ry
     ewald contribution        =     -68.79919271 Ry
     one-center paw contrib.   =     -60.60404097 Ry
     smearing contrib. (-TS)   =       0.00000000 Ry

     convergence has been achieved in   6 iterations

     Forces acting on atoms (cartesian axes, Ry/au):

     atom    1 type  2   force =    -0.00000000    0.00000000    0.00000000
     atom    2 type  1   force =     0.00000000   -0.00000000    0.00000000

     Total force =     0.000000     Total SCF correction =     0.000000


     Computing stress (Cartesian axis) and pressure

          total   stress  (Ry/bohr**3)                   (kbar)     P=    8.03
   0.00005462   0.00000000   0.00000000          8.03      0.00      0.00
   0.00000000   0.00005462   0.00000000          0.00      8.03      0.00
   0.00000000   0.00000000   0.00005462          0.00      0.00      8.03


     Writing output data file halite.save/

     init_run     :      9.35s CPU      9.59s WALL (       1 calls)
     electrons    :    112.14s CPU    113.85s WALL (       1 calls)
     forces       :      2.69s CPU      2.78s WALL (       1 calls)
     stress       :      5.48s CPU      5.85s WALL (       1 calls)

     Called by init_run:
     wfcinit      :      4.43s CPU      4.47s WALL (       1 calls)
     potinit      :      0.98s CPU      0.99s WALL (       1 calls)
     hinit0       :      3.29s CPU      3.34s WALL (       1 calls)

     Called by electrons:
     c_bands      :     85.67s CPU     85.97s WALL (       7 calls)
     sum_band     :     18.06s CPU     18.84s WALL (       7 calls)
     v_of_rho     :      1.78s CPU      1.81s WALL (       7 calls)
     newd         :      3.64s CPU      4.36s WALL (       7 calls)
     PAW_pot      :      4.05s CPU      4.07s WALL (       7 calls)
     mix_rho      :      0.20s CPU      0.21s WALL (       7 calls)

     Called by c_bands:
     init_us_2    :      1.97s CPU      1.98s WALL (     595 calls)
     cegterg      :     82.98s CPU     83.27s WALL (     245 calls)

     Called by sum_band:
     sum_band:bec :      0.01s CPU      0.01s WALL (     245 calls)
     addusdens    :      4.66s CPU      5.35s WALL (       7 calls)

     Called by *egterg:
     h_psi        :     63.50s CPU     63.72s WALL (     997 calls)
     s_psi        :      5.52s CPU      5.54s WALL (     997 calls)
     g_psi        :      0.20s CPU      0.20s WALL (     717 calls)
     cdiaghg      :      0.63s CPU      0.64s WALL (     927 calls)

     Called by h_psi:
     h_psi:pot    :     63.35s CPU     63.57s WALL (     997 calls)
     h_psi:calbec :      6.10s CPU      6.11s WALL (     997 calls)
     vloc_psi     :     51.71s CPU     51.89s WALL (     997 calls)
     add_vuspsi   :      5.53s CPU      5.57s WALL (     997 calls)

     General routines
     calbec       :      9.81s CPU      9.84s WALL (    1417 calls)
     fft          :      1.36s CPU      1.37s WALL (     115 calls)
     ffts         :      0.08s CPU      0.08s WALL (      14 calls)
     fftw         :     51.71s CPU     51.91s WALL (   19260 calls)
     interpolate  :      0.11s CPU      0.11s WALL (       7 calls)

     Parallel routines

     PWSCF        :   2m14.02s CPU   2m16.58s WALL


   This run was terminated on:  18:37:11  18Feb2020            

=------------------------------------------------------------------------------=
   JOB DONE.
=------------------------------------------------------------------------------=
