     Message from routine get_command_line:
     unexpected argument # 2     :-input

     Program PWSCF v.6.4.1 starts on 18Feb2020 at 18:30:38 

     This program is part of the open-source Quantum ESPRESSO suite
     for quantum simulation of materials; please cite
         "P. Giannozzi et al., J. Phys.:Condens. Matter 21 395502 (2009);
         "P. Giannozzi et al., J. Phys.:Condens. Matter 29 465901 (2017);
          URL http://www.quantum-espresso.org", 
     in publications or presentations arising from this work. More details at
     http://www.quantum-espresso.org/quote

     Parallel version (MPI), running on     1 processors

     MPI processes distributed on     1 nodes
     Waiting for input...
     Reading input from standard input

     Current dimensions of program PWSCF are:
     Max number of different atomic species (ntypx) = 10
     Max number of k-points (npk) =  40000
     Max angular momentum in pseudopotentials (lmaxx) =  3
     Message from routine volume:
     axis vectors are left-handed

     IMPORTANT: XC functional enforced from input :
     Exchange-correlation      = PBE ( 1  4  3  4 0 0)
     Any further DFT definition will be discarded
     Please, verify this is what you really want

               file Na.pbe-spn-kjpaw_psl.1.0.0.UPF: wavefunction(s)  2P renormalized
               file Cl.pbe-n-kjpaw_psl.1.0.0.UPF: wavefunction(s)  3S 3P renormalized

     Subspace diagonalization in iterative solution of the eigenvalue problem:
     a serial algorithm will be used

     Message from routine setup:
     DEPRECATED: symmetry with ibrav=0, use correct ibrav instead

     G-vector sticks info
     --------------------
     sticks:   dense  smooth     PW     G-vecs:    dense   smooth      PW
     Sum        1675    1345    385                45671    32647    5065



     bravais-lattice index     =            0
     lattice parameter (alat)  =      10.6591  a.u.
     unit-cell volume          =     302.7633 (a.u.)^3
     number of atoms/cell      =            2
     number of atomic types    =            2
     number of electrons       =        16.00
     number of Kohn-Sham states=           12
     kinetic-energy cutoff     =      86.0000  Ry
     charge density cutoff     =     430.0000  Ry
     convergence threshold     =      1.0E-08
     mixing beta               =       0.7000
     number of iterations used =            8  plain     mixing
     Exchange-correlation      = PBE ( 1  4  3  4 0 0)

     celldm(1)=  10.659114  celldm(2)=   0.000000  celldm(3)=   0.000000
     celldm(4)=   0.000000  celldm(5)=   0.000000  celldm(6)=   0.000000

     crystal axes: (cart. coord. in units of alat)
               a(1) = (   0.500000   0.500000   0.000000 )  
               a(2) = (   0.500000   0.000000   0.500000 )  
               a(3) = (   0.000000   0.500000   0.500000 )  

     reciprocal axes: (cart. coord. in units 2 pi/alat)
               b(1) = (  1.000000  1.000000 -1.000000 )  
               b(2) = (  1.000000 -1.000000  1.000000 )  
               b(3) = ( -1.000000  1.000000  1.000000 )  


     PseudoPot. # 1 for Na read from file:
     ./Na.pbe-spn-kjpaw_psl.1.0.0.UPF
     MD5 check sum: 05b4deb74e3932c23ab016979dc8b5d4
     Pseudo is Projector augmented-wave + core cor, Zval =  9.0
     Generated using "atomic" code by A. Dal Corso v.6.3
     Shape of augmentation charge: PSQ
     Using radial grid of 1121 points,  4 beta functions with: 
                l(1) =   0
                l(2) =   0
                l(3) =   1
                l(4) =   1
     Q(r) pseudized with 0 coefficients 


     PseudoPot. # 2 for Cl read from file:
     ./Cl.pbe-n-kjpaw_psl.1.0.0.UPF
     MD5 check sum: 530da96d25dcb7781b0586ca00827062
     Pseudo is Projector augmented-wave + core cor, Zval =  7.0
     Generated using "atomic" code by A. Dal Corso v.6.3
     Shape of augmentation charge: PSQ
     Using radial grid of 1157 points,  6 beta functions with: 
                l(1) =   0
                l(2) =   0
                l(3) =   1
                l(4) =   1
                l(5) =   2
                l(6) =   2
     Q(r) pseudized with 0 coefficients 


     atomic species   valence    mass     pseudopotential
        Na             9.00    22.98900     Na( 1.00)
        Cl             7.00    35.45150     Cl( 1.00)

     48 Sym. Ops., with inversion, found



   Cartesian axes

     site n.     atom                  positions (alat units)
         1           Cl  tau(   1) = (   0.5000000   0.5000000   0.5000000  )
         2           Na  tau(   2) = (   0.0000000   0.0000000   0.0000000  )

     number of k points=    35  Marzari-Vanderbilt smearing, width (Ry)=  0.0050
                       cart. coord. in units 2pi/alat
        k(    1) = (   0.0000000   0.0000000   0.0000000), wk =   0.0027435
        k(    2) = (  -0.1111111   0.1111111   0.1111111), wk =   0.0219479
        k(    3) = (  -0.2222222   0.2222222   0.2222222), wk =   0.0219479
        k(    4) = (  -0.3333333   0.3333333   0.3333333), wk =   0.0219479
        k(    5) = (  -0.4444444   0.4444444   0.4444444), wk =   0.0219479
        k(    6) = (   0.0000000   0.0000000   0.2222222), wk =   0.0164609
        k(    7) = (  -0.1111111   0.1111111   0.3333333), wk =   0.0658436
        k(    8) = (  -0.2222222   0.2222222   0.4444444), wk =   0.0658436
        k(    9) = (  -0.3333333   0.3333333   0.5555556), wk =   0.0658436
        k(   10) = (   0.5555556  -0.5555556  -0.3333333), wk =   0.0658436
        k(   11) = (   0.4444444  -0.4444444  -0.2222222), wk =   0.0658436
        k(   12) = (   0.3333333  -0.3333333  -0.1111111), wk =   0.0658436
        k(   13) = (   0.2222222  -0.2222222  -0.0000000), wk =   0.0329218
        k(   14) = (   0.0000000   0.0000000   0.4444444), wk =   0.0164609
        k(   15) = (  -0.1111111   0.1111111   0.5555556), wk =   0.0658436
        k(   16) = (  -0.2222222   0.2222222   0.6666667), wk =   0.0658436
        k(   17) = (   0.6666667  -0.6666667  -0.2222222), wk =   0.0658436
        k(   18) = (   0.5555556  -0.5555556  -0.1111111), wk =   0.0658436
        k(   19) = (   0.4444444  -0.4444444   0.0000000), wk =   0.0329218
        k(   20) = (   0.0000000   0.0000000   0.6666667), wk =   0.0164609
        k(   21) = (  -0.1111111   0.1111111   0.7777778), wk =   0.0658436
        k(   22) = (   0.7777778  -0.7777778  -0.1111111), wk =   0.0658436
        k(   23) = (   0.6666667  -0.6666667  -0.0000000), wk =   0.0329218
        k(   24) = (   0.0000000   0.0000000   0.8888889), wk =   0.0164609
        k(   25) = (   0.8888889  -0.8888889   0.0000000), wk =   0.0329218
        k(   26) = (   0.0000000   0.2222222   0.4444444), wk =   0.0658436
        k(   27) = (  -0.1111111   0.3333333   0.5555556), wk =   0.1316872
        k(   28) = (   0.7777778  -0.5555556  -0.3333333), wk =   0.1316872
        k(   29) = (   0.0000000   0.2222222   0.6666667), wk =   0.0658436
        k(   30) = (   0.8888889  -0.6666667  -0.2222222), wk =   0.1316872
        k(   31) = (   0.7777778  -0.5555556  -0.1111111), wk =   0.1316872
        k(   32) = (   0.6666667  -0.4444444   0.0000000), wk =   0.0658436
        k(   33) = (   1.0000000  -0.7777778  -0.1111111), wk =   0.0658436
        k(   34) = (   0.8888889  -0.6666667  -0.0000000), wk =   0.0658436
        k(   35) = (   1.0000000  -0.5555556  -0.1111111), wk =   0.0658436

     Dense  grid:    45671 G-vectors     FFT dimensions: (  50,  50,  50)

     Smooth grid:    32647 G-vectors     FFT dimensions: (  45,  45,  45)

     Estimated max dynamical RAM per process >     203.08 MB

     Initial potential from superposition of free atoms

     starting charge   15.99370, renormalised to   16.00000
     Starting wfcs are    9 randomized atomic wfcs +    3 random wfcs
     Checking if some PAW data can be deallocated... 

     total cpu time spent up to now is       12.5 secs

     Self-consistent Calculation

     iteration #  1     ecut=    86.00 Ry     beta= 0.70
     Davidson diagonalization with overlap
     ethr =  1.00E-02,  avg # of iterations =  5.6

     Threshold (ethr) on eigenvalues was too large:
     Diagonalizing with lowered threshold

     Davidson diagonalization with overlap
     ethr =  3.51E-04,  avg # of iterations =  1.9

     total cpu time spent up to now is       40.2 secs

     total energy              =    -188.83111353 Ry
     Harris-Foulkes estimate   =    -188.86382434 Ry
     estimated scf accuracy    <       0.05258277 Ry

     iteration #  2     ecut=    86.00 Ry     beta= 0.70
     Davidson diagonalization with overlap
     ethr =  3.29E-04,  avg # of iterations =  2.1

     total cpu time spent up to now is       53.6 secs

     total energy              =    -188.84659679 Ry
     Harris-Foulkes estimate   =    -188.85425075 Ry
     estimated scf accuracy    <       0.01411083 Ry

     iteration #  3     ecut=    86.00 Ry     beta= 0.70
     Davidson diagonalization with overlap
     ethr =  8.82E-05,  avg # of iterations =  2.1

     total cpu time spent up to now is       66.6 secs

     total energy              =    -188.84974184 Ry
     Harris-Foulkes estimate   =    -188.84960592 Ry
     estimated scf accuracy    <       0.00026740 Ry

     iteration #  4     ecut=    86.00 Ry     beta= 0.70
     Davidson diagonalization with overlap
     ethr =  1.67E-06,  avg # of iterations =  4.1

     total cpu time spent up to now is       84.3 secs

     total energy              =    -188.84980191 Ry
     Harris-Foulkes estimate   =    -188.84980110 Ry
     estimated scf accuracy    <       0.00000256 Ry

     iteration #  5     ecut=    86.00 Ry     beta= 0.70
     Davidson diagonalization with overlap
     ethr =  1.60E-08,  avg # of iterations =  3.1

     total cpu time spent up to now is      100.2 secs

     total energy              =    -188.84980357 Ry
     Harris-Foulkes estimate   =    -188.84980324 Ry
     estimated scf accuracy    <       0.00000018 Ry

     iteration #  6     ecut=    86.00 Ry     beta= 0.70
     Davidson diagonalization with overlap
     ethr =  1.13E-09,  avg # of iterations =  2.1

     total cpu time spent up to now is      113.3 secs

     total energy              =    -188.84980363 Ry
     Harris-Foulkes estimate   =    -188.84980364 Ry
     estimated scf accuracy    <       0.00000002 Ry

     iteration #  7     ecut=    86.00 Ry     beta= 0.70
     Davidson diagonalization with overlap
     ethr =  9.40E-11,  avg # of iterations =  2.9

     total cpu time spent up to now is      128.0 secs

     End of self-consistent calculation

          k = 0.0000 0.0000 0.0000 (  4015 PWs)   bands (ev):

   -47.9563 -19.8687 -19.8687 -19.8687 -11.6948   0.9616   0.9616   0.9616
     6.0650  12.0012  12.0012  12.0012

          k =-0.1111 0.1111 0.1111 (  4065 PWs)   bands (ev):

   -47.9562 -19.8722 -19.8690 -19.8690 -11.6577   0.6635   0.9291   0.9291
     6.4662  11.5669  12.1575  12.1575

          k =-0.2222 0.2222 0.2222 (  4056 PWs)   bands (ev):

   -47.9559 -19.8808 -19.8696 -19.8696 -11.5615   0.0306   0.8490   0.8490
     7.3278  11.0046  12.3103  12.3103

          k =-0.3333 0.3333 0.3333 (  4068 PWs)   bands (ev):

   -47.9557 -19.8906 -19.8703 -19.8703 -11.4481  -0.5664   0.7615   0.7615
     8.0056  11.0243  12.0922  12.0922

          k =-0.4444 0.4444 0.4444 (  4089 PWs)   bands (ev):

   -47.9555 -19.8969 -19.8708 -19.8708 -11.3716  -0.9135   0.7061   0.7061
     8.2133  11.4910  11.8919  11.8919

          k = 0.0000 0.0000 0.2222 (  4067 PWs)   bands (ev):

   -47.9561 -19.8720 -19.8697 -19.8697 -11.6460   0.6427   0.8838   0.8838
     6.5972  11.3359  12.2884  12.2884

          k =-0.1111 0.1111 0.3333 (  4061 PWs)   bands (ev):

   -47.9560 -19.8782 -19.8706 -19.8701 -11.5715   0.1787   0.7954   0.8105
     7.3137  10.8111  12.3002  12.5532

          k =-0.2222 0.2222 0.4444 (  4072 PWs)   bands (ev):

   -47.9557 -19.8871 -19.8714 -19.8709 -11.4659  -0.3784   0.6998   0.7075
     8.1132  10.6595  11.7750  12.4635

          k =-0.3333 0.3333 0.5556 (  4061 PWs)   bands (ev):

   -47.9555 -19.8941 -19.8720 -19.8717 -11.3782  -0.7729   0.5887   0.6592
     8.4850  11.0532  11.5160  12.2090

          k = 0.5556-0.5556-0.3333 (  4064 PWs)   bands (ev):

   -47.9554 -19.8961 -19.8728 -19.8713 -11.3523  -0.8782   0.5280   0.6704
     8.5486  11.1903  11.6185  12.0883

          k = 0.4444-0.4444-0.2222 (  4080 PWs)   bands (ev):

   -47.9556 -19.8922 -19.8730 -19.8704 -11.4020  -0.6655   0.5459   0.7366
     8.4391  10.9985  11.5784  12.1921

          k = 0.3333-0.3333-0.1111 (  4074 PWs)   bands (ev):

   -47.9558 -19.8844 -19.8722 -19.8695 -11.5013  -0.2046   0.6430   0.8299
     7.8883  10.7521  11.9749  12.4963

          k = 0.2222-0.2222-0.0000 (  4059 PWs)   bands (ev):

   -47.9560 -19.8764 -19.8707 -19.8689 -11.6016   0.3267   0.7956   0.9072
     7.0264  11.1035  12.2681  12.4169

          k = 0.0000 0.0000 0.4444 (  4052 PWs)   bands (ev):

   -47.9558 -19.8792 -19.8721 -19.8721 -11.5270   0.0394   0.6978   0.6978
     7.7483  10.2843  12.0249  13.0772

          k =-0.1111 0.1111 0.5556 (  4072 PWs)   bands (ev):

   -47.9556 -19.8845 -19.8733 -19.8732 -11.4473  -0.2982   0.5619   0.6041
     8.4139   9.9799  11.4439  13.2705

          k =-0.2222 0.2222 0.6667 (  4077 PWs)   bands (ev):

   -47.9554 -19.8896 -19.8752 -19.8735 -11.3686  -0.5758   0.3564   0.5556
     8.9350  10.2189  11.0734  13.0051

          k = 0.6667-0.6667-0.2222 (  4086 PWs)   bands (ev):

   -47.9553 -19.8919 -19.8772 -19.8729 -11.3290  -0.6755   0.1734   0.5719
     9.1874  10.4630  11.2285  12.7420

          k = 0.5556-0.5556-0.1111 (  4077 PWs)   bands (ev):

   -47.9554 -19.8907 -19.8780 -19.8716 -11.3487  -0.5943   0.1350   0.6465
     9.2738  10.6667  10.9456  12.6476

          k = 0.4444-0.4444 0.0000 (  4065 PWs)   bands (ev):

   -47.9556 -19.8877 -19.8760 -19.8702 -11.4174  -0.4190   0.3225   0.7483
     8.7690  10.5780  11.2482  12.7019

          k = 0.0000 0.0000 0.6667 (  4092 PWs)   bands (ev):

   -47.9555 -19.8855 -19.8748 -19.8748 -11.4004  -0.4370   0.5026   0.5026
     8.5767   9.4832  11.4782  14.2092

          k =-0.1111 0.1111 0.7778 (  4078 PWs)   bands (ev):

   -47.9553 -19.8875 -19.8768 -19.8755 -11.3469  -0.5683   0.3304   0.4475
     8.7872   9.4208  11.5358  14.1779

          k = 0.7778-0.7778-0.1111 (  4095 PWs)   bands (ev):

   -47.9553 -19.8874 -19.8808 -19.8749 -11.3121  -0.5261   0.0040   0.4611
     9.0889   9.8586  11.4722  13.7040

          k = 0.6667-0.6667-0.0000 (  4087 PWs)   bands (ev):

   -47.9553 -19.8868 -19.8830 -19.8734 -11.3129  -0.3612  -0.2591   0.5380
     9.5003  10.2768  11.1287  13.1984

          k = 0.0000 0.0000 0.8889 (  4092 PWs)   bands (ev):

   -47.9553 -19.8884 -19.8766 -19.8766 -11.3234  -0.6667   0.3832   0.3832
     8.5178   9.0668  12.1155  15.4481

          k = 0.8889-0.8889 0.0000 (  4096 PWs)   bands (ev):

   -47.9552 -19.8881 -19.8785 -19.8764 -11.3097  -0.6419   0.2343   0.3884
     8.6689   9.2240  12.0934  14.7499

          k = 0.0000 0.2222 0.4444 (  4070 PWs)   bands (ev):

   -47.9558 -19.8829 -19.8732 -19.8705 -11.4941  -0.1496   0.5855   0.7598
     8.0437  10.4250  11.7497  13.0286

          k =-0.1111 0.3333 0.5556 (  4081 PWs)   bands (ev):

   -47.9555 -19.8887 -19.8751 -19.8714 -11.4036  -0.4940   0.3947   0.6676
     8.7919  10.4599  11.1444  12.7630

          k = 0.7778-0.5556-0.3333 (  4073 PWs)   bands (ev):

   -47.9554 -19.8927 -19.8757 -19.8724 -11.3431  -0.7103   0.2942   0.5942
     9.0707  10.6591  11.1737  12.5364

          k = 0.0000 0.2222 0.6667 (  4085 PWs)   bands (ev):

   -47.9555 -19.8870 -19.8761 -19.8739 -11.3819  -0.4703   0.3665   0.5191
     8.9412   9.7919  11.1081  13.5750

          k = 0.8889-0.6667-0.2222 (  4075 PWs)   bands (ev):

   -47.9553 -19.8883 -19.8785 -19.8749 -11.3285  -0.5329   0.1239   0.4430
     9.3765  10.0747  10.9057  13.2240

          k = 0.7778-0.5556-0.1111 (  4084 PWs)   bands (ev):

   -47.9553 -19.8882 -19.8806 -19.8744 -11.3129  -0.4822  -0.0688   0.4634
     9.7227  10.1765  10.9708  12.8551

          k = 0.6667-0.4444 0.0000 (  4077 PWs)   bands (ev):

   -47.9554 -19.8885 -19.8793 -19.8728 -11.3430  -0.4931   0.0537   0.5607
     9.6543  10.4393  10.4982  12.9465

          k = 1.0000-0.7778-0.1111 (  4072 PWs)   bands (ev):

   -47.9553 -19.8875 -19.8780 -19.8771 -11.3151  -0.5821   0.2333   0.3299
     8.9343   9.4428  11.6913  13.9240

          k = 0.8889-0.6667-0.0000 (  4094 PWs)   bands (ev):

   -47.9552 -19.8855 -19.8820 -19.8765 -11.3018  -0.4443  -0.0589   0.3452
     9.3164   9.9203  11.4196  13.0816

          k = 1.0000-0.5556-0.1111 (  4087 PWs)   bands (ev):

   -47.9552 -19.8852 -19.8815 -19.8774 -11.3022  -0.3574  -0.1076   0.2807
     9.7672  10.3766  10.6919  12.6008

     the Fermi energy is     3.6448 ev

!    total energy              =    -188.84980364 Ry
     Harris-Foulkes estimate   =    -188.84980364 Ry
     estimated scf accuracy    <          2.1E-09 Ry

     total all-electron energy =     -1248.136819 Ry

     The total energy is the sum of the following terms:

     one-electron contribution =     -80.91576815 Ry
     hartree contribution      =      47.14293817 Ry
     xc contribution           =     -25.67413867 Ry
     ewald contribution        =     -68.79919271 Ry
     one-center paw contrib.   =     -60.60364229 Ry
     smearing contrib. (-TS)   =       0.00000000 Ry

     convergence has been achieved in   7 iterations

     Forces acting on atoms (cartesian axes, Ry/au):

     atom    1 type  2   force =     0.00000000    0.00000000    0.00000000
     atom    2 type  1   force =     0.00000000    0.00000000   -0.00000000

     Total force =     0.000000     Total SCF correction =     0.000000


     Computing stress (Cartesian axis) and pressure

          total   stress  (Ry/bohr**3)                   (kbar)     P=    7.10
   0.00004829  -0.00000000  -0.00000000          7.10     -0.00     -0.00
  -0.00000000   0.00004829  -0.00000000         -0.00      7.10     -0.00
  -0.00000000  -0.00000000   0.00004829         -0.00     -0.00      7.10


     Writing output data file halite.save/

     init_run     :      8.05s CPU      8.21s WALL (       1 calls)
     electrons    :    114.00s CPU    115.52s WALL (       1 calls)
     forces       :      1.92s CPU      1.98s WALL (       1 calls)
     stress       :      4.00s CPU      4.21s WALL (       1 calls)

     Called by init_run:
     wfcinit      :      3.85s CPU      3.89s WALL (       1 calls)
     potinit      :      0.77s CPU      0.80s WALL (       1 calls)
     hinit0       :      2.94s CPU      2.97s WALL (       1 calls)

     Called by electrons:
     c_bands      :     88.10s CPU     88.69s WALL (       8 calls)
     sum_band     :     18.18s CPU     18.70s WALL (       8 calls)
     v_of_rho     :      1.02s CPU      1.03s WALL (       8 calls)
     newd         :      3.06s CPU      3.50s WALL (       8 calls)
     PAW_pot      :      4.52s CPU      4.55s WALL (       8 calls)
     mix_rho      :      0.11s CPU      0.11s WALL (       8 calls)

     Called by c_bands:
     init_us_2    :      1.64s CPU      1.67s WALL (     665 calls)
     cegterg      :     85.81s CPU     86.36s WALL (     280 calls)

     Called by sum_band:
     sum_band:bec :      0.02s CPU      0.02s WALL (     280 calls)
     addusdens    :      3.92s CPU      4.34s WALL (       8 calls)

     Called by *egterg:
     h_psi        :     69.15s CPU     69.60s WALL (    1150 calls)
     s_psi        :      4.65s CPU      4.68s WALL (    1150 calls)
     g_psi        :      0.17s CPU      0.18s WALL (     835 calls)
     cdiaghg      :      0.76s CPU      0.77s WALL (    1080 calls)

     Called by h_psi:
     h_psi:pot    :     69.02s CPU     69.47s WALL (    1150 calls)
     h_psi:calbec :      5.12s CPU      5.15s WALL (    1150 calls)
     vloc_psi     :     59.22s CPU     59.60s WALL (    1150 calls)
     add_vuspsi   :      4.66s CPU      4.71s WALL (    1150 calls)

     General routines
     calbec       :      8.08s CPU      8.13s WALL (    1605 calls)
     fft          :      0.60s CPU      0.60s WALL (     128 calls)
     ffts         :      0.08s CPU      0.08s WALL (      16 calls)
     fftw         :     62.16s CPU     62.58s WALL (   22054 calls)
     interpolate  :      0.09s CPU      0.09s WALL (       8 calls)

     Parallel routines

     PWSCF        :   2m12.32s CPU   2m14.35s WALL


   This run was terminated on:  18:32:53  18Feb2020            

=------------------------------------------------------------------------------=
   JOB DONE.
=------------------------------------------------------------------------------=
