     Message from routine get_command_line:
     unexpected argument # 2     :-input

     Program PWSCF v.6.4.1 starts on 18Feb2020 at  8: 8:56 

     This program is part of the open-source Quantum ESPRESSO suite
     for quantum simulation of materials; please cite
         "P. Giannozzi et al., J. Phys.:Condens. Matter 21 395502 (2009);
         "P. Giannozzi et al., J. Phys.:Condens. Matter 29 465901 (2017);
          URL http://www.quantum-espresso.org", 
     in publications or presentations arising from this work. More details at
     http://www.quantum-espresso.org/quote

     Parallel version (MPI), running on     1 processors

     MPI processes distributed on     1 nodes
     Waiting for input...
     Reading input from standard input

     Current dimensions of program PWSCF are:
     Max number of different atomic species (ntypx) = 10
     Max number of k-points (npk) =  40000
     Max angular momentum in pseudopotentials (lmaxx) =  3
     Message from routine volume:
     axis vectors are left-handed

     IMPORTANT: XC functional enforced from input :
     Exchange-correlation      = PBE ( 1  4  3  4 0 0)
     Any further DFT definition will be discarded
     Please, verify this is what you really want

               file Na.pbe-spn-kjpaw_psl.1.0.0.UPF: wavefunction(s)  2P renormalized
               file Cl.pbe-n-kjpaw_psl.1.0.0.UPF: wavefunction(s)  3S 3P renormalized

     Subspace diagonalization in iterative solution of the eigenvalue problem:
     a serial algorithm will be used

     Message from routine setup:
     DEPRECATED: symmetry with ibrav=0, use correct ibrav instead

     G-vector sticks info
     --------------------
     sticks:   dense  smooth     PW     G-vecs:    dense   smooth      PW
     Sum        1675    1345    379                45671    32647    5029



     bravais-lattice index     =            0
     lattice parameter (alat)  =      10.6591  a.u.
     unit-cell volume          =     302.7633 (a.u.)^3
     number of atoms/cell      =            2
     number of atomic types    =            2
     number of electrons       =        16.00
     number of Kohn-Sham states=           12
     kinetic-energy cutoff     =      86.0000  Ry
     charge density cutoff     =     430.0000  Ry
     convergence threshold     =      1.0E-08
     mixing beta               =       0.7000
     number of iterations used =            8  plain     mixing
     Exchange-correlation      = PBE ( 1  4  3  4 0 0)

     celldm(1)=  10.659114  celldm(2)=   0.000000  celldm(3)=   0.000000
     celldm(4)=   0.000000  celldm(5)=   0.000000  celldm(6)=   0.000000

     crystal axes: (cart. coord. in units of alat)
               a(1) = (   0.500000   0.500000   0.000000 )  
               a(2) = (   0.500000   0.000000   0.500000 )  
               a(3) = (   0.000000   0.500000   0.500000 )  

     reciprocal axes: (cart. coord. in units 2 pi/alat)
               b(1) = (  1.000000  1.000000 -1.000000 )  
               b(2) = (  1.000000 -1.000000  1.000000 )  
               b(3) = ( -1.000000  1.000000  1.000000 )  


     PseudoPot. # 1 for Na read from file:
     ./Na.pbe-spn-kjpaw_psl.1.0.0.UPF
     MD5 check sum: 05b4deb74e3932c23ab016979dc8b5d4
     Pseudo is Projector augmented-wave + core cor, Zval =  9.0
     Generated using "atomic" code by A. Dal Corso v.6.3
     Shape of augmentation charge: PSQ
     Using radial grid of 1121 points,  4 beta functions with: 
                l(1) =   0
                l(2) =   0
                l(3) =   1
                l(4) =   1
     Q(r) pseudized with 0 coefficients 


     PseudoPot. # 2 for Cl read from file:
     ./Cl.pbe-n-kjpaw_psl.1.0.0.UPF
     MD5 check sum: 530da96d25dcb7781b0586ca00827062
     Pseudo is Projector augmented-wave + core cor, Zval =  7.0
     Generated using "atomic" code by A. Dal Corso v.6.3
     Shape of augmentation charge: PSQ
     Using radial grid of 1157 points,  6 beta functions with: 
                l(1) =   0
                l(2) =   0
                l(3) =   1
                l(4) =   1
                l(5) =   2
                l(6) =   2
     Q(r) pseudized with 0 coefficients 


     atomic species   valence    mass     pseudopotential
        Na             9.00    22.98900     Na( 1.00)
        Cl             7.00    35.45150     Cl( 1.00)

     48 Sym. Ops., with inversion, found



   Cartesian axes

     site n.     atom                  positions (alat units)
         1           Cl  tau(   1) = (   0.5000000   0.5000000   0.5000000  )
         2           Na  tau(   2) = (   0.0000000   0.0000000   0.0000000  )

     number of k points=    20  Marzari-Vanderbilt smearing, width (Ry)=  0.0050
                       cart. coord. in units 2pi/alat
        k(    1) = (   0.0000000   0.0000000   0.0000000), wk =   0.0058309
        k(    2) = (  -0.1428571   0.1428571   0.1428571), wk =   0.0466472
        k(    3) = (  -0.2857143   0.2857143   0.2857143), wk =   0.0466472
        k(    4) = (  -0.4285714   0.4285714   0.4285714), wk =   0.0466472
        k(    5) = (   0.0000000   0.0000000   0.2857143), wk =   0.0349854
        k(    6) = (  -0.1428571   0.1428571   0.4285714), wk =   0.1399417
        k(    7) = (  -0.2857143   0.2857143   0.5714286), wk =   0.1399417
        k(    8) = (   0.5714286  -0.5714286  -0.2857143), wk =   0.1399417
        k(    9) = (   0.4285714  -0.4285714  -0.1428571), wk =   0.1399417
        k(   10) = (   0.2857143  -0.2857143  -0.0000000), wk =   0.0699708
        k(   11) = (   0.0000000   0.0000000   0.5714286), wk =   0.0349854
        k(   12) = (  -0.1428571   0.1428571   0.7142857), wk =   0.1399417
        k(   13) = (   0.7142857  -0.7142857  -0.1428571), wk =   0.1399417
        k(   14) = (   0.5714286  -0.5714286   0.0000000), wk =   0.0699708
        k(   15) = (   0.0000000   0.0000000   0.8571429), wk =   0.0349854
        k(   16) = (   0.8571429  -0.8571429  -0.0000000), wk =   0.0699708
        k(   17) = (   0.0000000   0.2857143   0.5714286), wk =   0.1399417
        k(   18) = (   0.8571429  -0.5714286  -0.2857143), wk =   0.2798834
        k(   19) = (   1.0000000  -0.7142857  -0.1428571), wk =   0.1399417
        k(   20) = (   0.8571429  -0.5714286   0.0000000), wk =   0.1399417

     Dense  grid:    45671 G-vectors     FFT dimensions: (  50,  50,  50)

     Smooth grid:    32647 G-vectors     FFT dimensions: (  45,  45,  45)

     Estimated max dynamical RAM per process >     191.88 MB

     Initial potential from superposition of free atoms

     starting charge   15.99370, renormalised to   16.00000
     Starting wfcs are    9 randomized atomic wfcs +    3 random wfcs
     Checking if some PAW data can be deallocated... 

     total cpu time spent up to now is       12.2 secs

     Self-consistent Calculation

     iteration #  1     ecut=    86.00 Ry     beta= 0.70
     Davidson diagonalization with overlap
     ethr =  1.00E-02,  avg # of iterations =  5.7

     Threshold (ethr) on eigenvalues was too large:
     Diagonalizing with lowered threshold

     Davidson diagonalization with overlap
     ethr =  3.52E-04,  avg # of iterations =  1.6

     total cpu time spent up to now is       30.5 secs

     total energy              =    -188.83043047 Ry
     Harris-Foulkes estimate   =    -188.86363777 Ry
     estimated scf accuracy    <       0.05320681 Ry

     iteration #  2     ecut=    86.00 Ry     beta= 0.70
     Davidson diagonalization with overlap
     ethr =  3.33E-04,  avg # of iterations =  2.0

     total cpu time spent up to now is       39.4 secs

     total energy              =    -188.84650495 Ry
     Harris-Foulkes estimate   =    -188.85445451 Ry
     estimated scf accuracy    <       0.01466958 Ry

     iteration #  3     ecut=    86.00 Ry     beta= 0.70
     Davidson diagonalization with overlap
     ethr =  9.17E-05,  avg # of iterations =  2.0

     total cpu time spent up to now is       48.2 secs

     total energy              =    -188.84974129 Ry
     Harris-Foulkes estimate   =    -188.84960065 Ry
     estimated scf accuracy    <       0.00026791 Ry

     iteration #  4     ecut=    86.00 Ry     beta= 0.70
     Davidson diagonalization with overlap
     ethr =  1.67E-06,  avg # of iterations =  4.3

     total cpu time spent up to now is       59.6 secs

     total energy              =    -188.84980118 Ry
     Harris-Foulkes estimate   =    -188.84980096 Ry
     estimated scf accuracy    <       0.00000339 Ry

     iteration #  5     ecut=    86.00 Ry     beta= 0.70
     Davidson diagonalization with overlap
     ethr =  2.12E-08,  avg # of iterations =  3.0

     total cpu time spent up to now is       70.1 secs

     total energy              =    -188.84980300 Ry
     Harris-Foulkes estimate   =    -188.84980262 Ry
     estimated scf accuracy    <       0.00000020 Ry

     iteration #  6     ecut=    86.00 Ry     beta= 0.70
     Davidson diagonalization with overlap
     ethr =  1.26E-09,  avg # of iterations =  2.0

     total cpu time spent up to now is       79.0 secs

     total energy              =    -188.84980306 Ry
     Harris-Foulkes estimate   =    -188.84980307 Ry
     estimated scf accuracy    <       0.00000003 Ry

     iteration #  7     ecut=    86.00 Ry     beta= 0.70
     Davidson diagonalization with overlap
     ethr =  1.65E-10,  avg # of iterations =  3.0

     total cpu time spent up to now is       89.2 secs

     End of self-consistent calculation

          k = 0.0000 0.0000 0.0000 (  4015 PWs)   bands (ev):

   -47.9563 -19.8687 -19.8687 -19.8687 -11.6948   0.9616   0.9616   0.9616
     6.0650  12.0012  12.0012  12.0012

          k =-0.1429 0.1429 0.1429 (  4065 PWs)   bands (ev):

   -47.9561 -19.8743 -19.8691 -19.8691 -11.6348   0.4979   0.9096   0.9096
     6.6926  11.3763  12.2321  12.2322

          k =-0.2857 0.2857 0.2857 (  4065 PWs)   bands (ev):

   -47.9558 -19.8866 -19.8700 -19.8700 -11.4954  -0.3318   0.7971   0.7971
     7.7746  10.9258  12.2069  12.2069

          k =-0.4286 0.4286 0.4286 (  4098 PWs)   bands (ev):

   -47.9555 -19.8964 -19.8708 -19.8708 -11.3784  -0.8840   0.7110   0.7110
     8.2024  11.4331  11.9097  11.9097

          k = 0.0000 0.0000 0.2857 (  4064 PWs)   bands (ev):

   -47.9561 -19.8739 -19.8703 -19.8703 -11.6168   0.4754   0.8377   0.8377
     6.8972  11.0289  12.4689  12.4689

          k =-0.1429 0.1429 0.4286 (  4068 PWs)   bands (ev):

   -47.9558 -19.8826 -19.8716 -19.8711 -11.5084  -0.1201   0.7116   0.7160
     7.8762  10.4867  11.8995  12.7253

          k =-0.2857 0.2857 0.5714 (  4074 PWs)   bands (ev):

   -47.9555 -19.8921 -19.8726 -19.8722 -11.3869  -0.6724   0.5370   0.6366
     8.6008  10.7805  11.3430  12.4268

          k = 0.5714-0.5714-0.2857 (  4065 PWs)   bands (ev):

   -47.9554 -19.8950 -19.8740 -19.8715 -11.3471  -0.8269   0.4281   0.6537
     8.7377  10.9899  11.4951  12.2275

          k = 0.4286-0.4286-0.1429 (  4072 PWs)   bands (ev):

   -47.9556 -19.8895 -19.8740 -19.8702 -11.4219  -0.5148   0.4749   0.7560
     8.5031  10.7718  11.4894  12.3969

          k = 0.2857-0.2857-0.0000 (  4059 PWs)   bands (ev):

   -47.9559 -19.8802 -19.8719 -19.8691 -11.5501   0.0602   0.6876   0.8716
     7.5086  10.8398  12.1316  12.6857

          k = 0.0000 0.0000 0.5714 (  4064 PWs)   bands (ev):

   -47.9556 -19.8831 -19.8737 -19.8737 -11.4514  -0.2613   0.5811   0.5811
     8.3390   9.7832  11.5377  13.6930

          k =-0.1429 0.1429 0.7143 (  4082 PWs)   bands (ev):

   -47.9554 -19.8875 -19.8761 -19.8747 -11.3655  -0.5238   0.3477   0.4944
     8.8714   9.6766  11.2665  13.6898

          k = 0.7143-0.7143-0.1429 (  4083 PWs)   bands (ev):

   -47.9553 -19.8888 -19.8802 -19.8739 -11.3159  -0.5394  -0.0192   0.5142
     9.2909  10.1942  11.2210  13.2192

          k = 0.5714-0.5714 0.0000 (  4085 PWs)   bands (ev):

   -47.9554 -19.8890 -19.8801 -19.8719 -11.3416  -0.4929  -0.0172   0.6278
     9.5364  10.5186  10.7853  12.8474

          k = 0.0000 0.0000 0.8571 (  4084 PWs)   bands (ev):

   -47.9553 -19.8882 -19.8764 -19.8764 -11.3300  -0.6487   0.3935   0.3935
     8.5422   9.1011  12.0171  15.2873

          k = 0.8571-0.8571-0.0000 (  4093 PWs)   bands (ev):

   -47.9552 -19.8876 -19.8795 -19.8761 -11.3079  -0.6084   0.1571   0.4018
     8.7726   9.3643  11.9791  14.4716

          k = 0.0000 0.2857 0.5714 (  4086 PWs)   bands (ev):

   -47.9555 -19.8868 -19.8756 -19.8719 -11.4125  -0.4067   0.3805   0.6422
     8.8175  10.1775  11.1192  13.1308

          k = 0.8571-0.5714-0.2857 (  4069 PWs)   bands (ev):

   -47.9554 -19.8901 -19.8779 -19.8734 -11.3336  -0.5864   0.1361   0.5241
     9.4663  10.3728  10.8447  12.8402

          k = 1.0000-0.7143-0.1429 (  4081 PWs)   bands (ev):

   -47.9553 -19.8871 -19.8786 -19.8769 -11.3160  -0.5304   0.1587   0.3300
     9.2007   9.6951  11.3250  13.5016

          k = 0.8571-0.5714 0.0000 (  4088 PWs)   bands (ev):

   -47.9552 -19.8842 -19.8836 -19.8762 -11.3019  -0.2961  -0.2324   0.3478
     9.7002  10.2187  10.9865  12.6716

     the Fermi energy is     3.5142 ev

!    total energy              =    -188.84980308 Ry
     Harris-Foulkes estimate   =    -188.84980308 Ry
     estimated scf accuracy    <          2.2E-09 Ry

     total all-electron energy =     -1248.136818 Ry

     The total energy is the sum of the following terms:

     one-electron contribution =     -80.91577256 Ry
     hartree contribution      =      47.14294697 Ry
     xc contribution           =     -25.67414238 Ry
     ewald contribution        =     -68.79919271 Ry
     one-center paw contrib.   =     -60.60364240 Ry
     smearing contrib. (-TS)   =       0.00000000 Ry

     convergence has been achieved in   7 iterations

     Forces acting on atoms (cartesian axes, Ry/au):

     atom    1 type  2   force =     0.00000000    0.00000000    0.00000000
     atom    2 type  1   force =     0.00000000   -0.00000000    0.00000000

     Total force =     0.000000     Total SCF correction =     0.000000


     Computing stress (Cartesian axis) and pressure

          total   stress  (Ry/bohr**3)                   (kbar)     P=    7.11
   0.00004830   0.00000000   0.00000000          7.11      0.00      0.00
   0.00000000   0.00004830   0.00000000          0.00      7.11      0.00
   0.00000000   0.00000000   0.00004830          0.00      0.00      7.11


     Writing output data file halite.save/

     init_run     :      6.78s CPU      7.50s WALL (       1 calls)
     electrons    :     75.52s CPU     77.12s WALL (       1 calls)
     forces       :      1.56s CPU      1.64s WALL (       1 calls)
     stress       :      3.26s CPU      3.47s WALL (       1 calls)

     Called by init_run:
     wfcinit      :      2.35s CPU      2.66s WALL (       1 calls)
     potinit      :      0.87s CPU      0.92s WALL (       1 calls)
     hinit0       :      3.05s CPU      3.12s WALL (       1 calls)

     Called by electrons:
     c_bands      :     54.35s CPU     54.68s WALL (       8 calls)
     sum_band     :     12.80s CPU     13.45s WALL (       8 calls)
     v_of_rho     :      1.11s CPU      1.12s WALL (       8 calls)
     newd         :      3.26s CPU      3.78s WALL (       8 calls)
     PAW_pot      :      4.99s CPU      5.04s WALL (       8 calls)
     mix_rho      :      0.12s CPU      0.15s WALL (       8 calls)

     Called by c_bands:
     init_us_2    :      1.01s CPU      1.03s WALL (     380 calls)
     cegterg      :     52.93s CPU     53.26s WALL (     160 calls)

     Called by sum_band:
     sum_band:bec :      0.01s CPU      0.01s WALL (     160 calls)
     addusdens    :      4.12s CPU      4.61s WALL (       8 calls)

     Called by *egterg:
     h_psi        :     42.74s CPU     43.04s WALL (     654 calls)
     s_psi        :      2.84s CPU      2.86s WALL (     654 calls)
     g_psi        :      0.11s CPU      0.11s WALL (     474 calls)
     cdiaghg      :      0.45s CPU      0.45s WALL (     614 calls)

     Called by h_psi:
     h_psi:pot    :     42.67s CPU     42.96s WALL (     654 calls)
     h_psi:calbec :      3.13s CPU      3.15s WALL (     654 calls)
     vloc_psi     :     36.70s CPU     36.96s WALL (     654 calls)
     add_vuspsi   :      2.83s CPU      2.84s WALL (     654 calls)

     General routines
     calbec       :      4.92s CPU      4.95s WALL (     914 calls)
     fft          :      0.64s CPU      0.69s WALL (     128 calls)
     ffts         :      0.09s CPU      0.09s WALL (      16 calls)
     fftw         :     38.32s CPU     38.67s WALL (   12610 calls)
     interpolate  :      0.10s CPU      0.10s WALL (       8 calls)

     Parallel routines

     PWSCF        :   1m31.87s CPU   1m35.08s WALL


   This run was terminated on:   8:10:31  18Feb2020            

=------------------------------------------------------------------------------=
   JOB DONE.
=------------------------------------------------------------------------------=
