     Message from routine get_command_line:
     unexpected argument # 2     :-input

     Program PWSCF v.6.4.1 starts on 18Feb2020 at 18:13:22 

     This program is part of the open-source Quantum ESPRESSO suite
     for quantum simulation of materials; please cite
         "P. Giannozzi et al., J. Phys.:Condens. Matter 21 395502 (2009);
         "P. Giannozzi et al., J. Phys.:Condens. Matter 29 465901 (2017);
          URL http://www.quantum-espresso.org", 
     in publications or presentations arising from this work. More details at
     http://www.quantum-espresso.org/quote

     Parallel version (MPI), running on     1 processors

     MPI processes distributed on     1 nodes
     Waiting for input...
     Reading input from standard input

     Current dimensions of program PWSCF are:
     Max number of different atomic species (ntypx) = 10
     Max number of k-points (npk) =  40000
     Max angular momentum in pseudopotentials (lmaxx) =  3
     Message from routine volume:
     axis vectors are left-handed

     IMPORTANT: XC functional enforced from input :
     Exchange-correlation      = PBE ( 1  4  3  4 0 0)
     Any further DFT definition will be discarded
     Please, verify this is what you really want

               file Na.pbe-spn-kjpaw_psl.1.0.0.UPF: wavefunction(s)  2P renormalized
               file Cl.pbe-n-kjpaw_psl.1.0.0.UPF: wavefunction(s)  3S 3P renormalized

     Subspace diagonalization in iterative solution of the eigenvalue problem:
     a serial algorithm will be used

     Message from routine setup:
     DEPRECATED: symmetry with ibrav=0, use correct ibrav instead

     G-vector sticks info
     --------------------
     sticks:   dense  smooth     PW     G-vecs:    dense   smooth      PW
     Sum         913     721    211                17933    12675    2109



     bravais-lattice index     =            0
     lattice parameter (alat)  =      10.6591  a.u.
     unit-cell volume          =     302.7633 (a.u.)^3
     number of atoms/cell      =            2
     number of atomic types    =            2
     number of electrons       =        16.00
     number of Kohn-Sham states=           12
     kinetic-energy cutoff     =      46.0000  Ry
     charge density cutoff     =     230.0000  Ry
     convergence threshold     =      1.0E-08
     mixing beta               =       0.7000
     number of iterations used =            8  plain     mixing
     Exchange-correlation      = PBE ( 1  4  3  4 0 0)

     celldm(1)=  10.659114  celldm(2)=   0.000000  celldm(3)=   0.000000
     celldm(4)=   0.000000  celldm(5)=   0.000000  celldm(6)=   0.000000

     crystal axes: (cart. coord. in units of alat)
               a(1) = (   0.500000   0.500000   0.000000 )  
               a(2) = (   0.500000   0.000000   0.500000 )  
               a(3) = (   0.000000   0.500000   0.500000 )  

     reciprocal axes: (cart. coord. in units 2 pi/alat)
               b(1) = (  1.000000  1.000000 -1.000000 )  
               b(2) = (  1.000000 -1.000000  1.000000 )  
               b(3) = ( -1.000000  1.000000  1.000000 )  


     PseudoPot. # 1 for Na read from file:
     ./Na.pbe-spn-kjpaw_psl.1.0.0.UPF
     MD5 check sum: 05b4deb74e3932c23ab016979dc8b5d4
     Pseudo is Projector augmented-wave + core cor, Zval =  9.0
     Generated using "atomic" code by A. Dal Corso v.6.3
     Shape of augmentation charge: PSQ
     Using radial grid of 1121 points,  4 beta functions with: 
                l(1) =   0
                l(2) =   0
                l(3) =   1
                l(4) =   1
     Q(r) pseudized with 0 coefficients 


     PseudoPot. # 2 for Cl read from file:
     ./Cl.pbe-n-kjpaw_psl.1.0.0.UPF
     MD5 check sum: 530da96d25dcb7781b0586ca00827062
     Pseudo is Projector augmented-wave + core cor, Zval =  7.0
     Generated using "atomic" code by A. Dal Corso v.6.3
     Shape of augmentation charge: PSQ
     Using radial grid of 1157 points,  6 beta functions with: 
                l(1) =   0
                l(2) =   0
                l(3) =   1
                l(4) =   1
                l(5) =   2
                l(6) =   2
     Q(r) pseudized with 0 coefficients 


     atomic species   valence    mass     pseudopotential
        Na             9.00    22.98900     Na( 1.00)
        Cl             7.00    35.45150     Cl( 1.00)

     48 Sym. Ops., with inversion, found



   Cartesian axes

     site n.     atom                  positions (alat units)
         1           Cl  tau(   1) = (   0.5000000   0.5000000   0.5000000  )
         2           Na  tau(   2) = (   0.0000000   0.0000000   0.0000000  )

     number of k points=    10  Marzari-Vanderbilt smearing, width (Ry)=  0.0050
                       cart. coord. in units 2pi/alat
        k(    1) = (   0.0000000   0.0000000   0.0000000), wk =   0.0160000
        k(    2) = (  -0.2000000   0.2000000   0.2000000), wk =   0.1280000
        k(    3) = (  -0.4000000   0.4000000   0.4000000), wk =   0.1280000
        k(    4) = (   0.0000000   0.0000000   0.4000000), wk =   0.0960000
        k(    5) = (  -0.2000000   0.2000000   0.6000000), wk =   0.3840000
        k(    6) = (   0.6000000  -0.6000000  -0.2000000), wk =   0.3840000
        k(    7) = (   0.4000000  -0.4000000   0.0000000), wk =   0.1920000
        k(    8) = (   0.0000000   0.0000000   0.8000000), wk =   0.0960000
        k(    9) = (   0.8000000  -0.8000000   0.0000000), wk =   0.1920000
        k(   10) = (   1.0000000  -0.6000000  -0.2000000), wk =   0.3840000

     Dense  grid:    17933 G-vectors     FFT dimensions: (  40,  40,  40)

     Smooth grid:    12675 G-vectors     FFT dimensions: (  36,  36,  36)

     Estimated max dynamical RAM per process >      75.33 MB

     Check: negative core charge=   -0.000005

     Initial potential from superposition of free atoms

     starting charge   15.99370, renormalised to   16.00000
     Starting wfcs are    9 randomized atomic wfcs +    3 random wfcs
     Checking if some PAW data can be deallocated... 

     total cpu time spent up to now is        7.8 secs

     Self-consistent Calculation

     iteration #  1     ecut=    46.00 Ry     beta= 0.70
     Davidson diagonalization with overlap
     ethr =  1.00E-02,  avg # of iterations =  6.8

     Threshold (ethr) on eigenvalues was too large:
     Diagonalizing with lowered threshold

     Davidson diagonalization with overlap
     ethr =  3.29E-04,  avg # of iterations =  1.2

     total cpu time spent up to now is       12.0 secs

     total energy              =    -188.82307883 Ry
     Harris-Foulkes estimate   =    -188.85438517 Ry
     estimated scf accuracy    <       0.05149901 Ry

     iteration #  2     ecut=    46.00 Ry     beta= 0.70
     Davidson diagonalization with overlap
     ethr =  3.22E-04,  avg # of iterations =  2.0

     total cpu time spent up to now is       14.4 secs

     total energy              =    -188.83679456 Ry
     Harris-Foulkes estimate   =    -188.84361955 Ry
     estimated scf accuracy    <       0.01250850 Ry

     iteration #  3     ecut=    46.00 Ry     beta= 0.70
     Davidson diagonalization with overlap
     ethr =  7.82E-05,  avg # of iterations =  2.0

     total cpu time spent up to now is       16.7 secs

     total energy              =    -188.83963127 Ry
     Harris-Foulkes estimate   =    -188.83951144 Ry
     estimated scf accuracy    <       0.00026769 Ry

     iteration #  4     ecut=    46.00 Ry     beta= 0.70
     Davidson diagonalization with overlap
     ethr =  1.67E-06,  avg # of iterations =  4.3

     total cpu time spent up to now is       19.4 secs

     total energy              =    -188.83966931 Ry
     Harris-Foulkes estimate   =    -188.83966786 Ry
     estimated scf accuracy    <       0.00000151 Ry

     iteration #  5     ecut=    46.00 Ry     beta= 0.70
     Davidson diagonalization with overlap
     ethr =  9.46E-09,  avg # of iterations =  3.0

     total cpu time spent up to now is       22.1 secs

     total energy              =    -188.83967053 Ry
     Harris-Foulkes estimate   =    -188.83967029 Ry
     estimated scf accuracy    <       0.00000020 Ry

     iteration #  6     ecut=    46.00 Ry     beta= 0.70
     Davidson diagonalization with overlap
     ethr =  1.28E-09,  avg # of iterations =  2.0

     total cpu time spent up to now is       24.5 secs

     End of self-consistent calculation

          k = 0.0000 0.0000 0.0000 (  1639 PWs)   bands (ev):

   -47.9589 -19.8610 -19.8610 -19.8610 -11.6862   0.9714   0.9714   0.9714
     6.0783  12.0033  12.0033  12.0033

          k =-0.2000 0.2000 0.2000 (  1585 PWs)   bands (ev):

   -47.9586 -19.8698 -19.8598 -19.8598 -11.5747   0.1729   0.8763   0.8763
     7.1709  11.0932  12.3306  12.3306

          k =-0.4000 0.4000 0.4000 (  1601 PWs)   bands (ev):

   -47.9582 -19.8868 -19.8617 -19.8617 -11.3852  -0.8050   0.7303   0.7303
     8.2013  11.3266  12.0043  12.0043

          k = 0.0000 0.0000 0.4000 (  1607 PWs)   bands (ev):

   -47.9585 -19.8695 -19.8628 -19.8628 -11.5447   0.1664   0.7497   0.7497
     7.5257  10.4834  12.3196  12.9037

          k =-0.2000 0.2000 0.6000 (  1598 PWs)   bands (ev):

   -47.9581 -19.8801 -19.8647 -19.8642 -11.3921  -0.4923   0.4808   0.6008
     8.7471  10.2361  11.2413  12.9759

          k = 0.6000-0.6000-0.2000 (  1596 PWs)   bands (ev):

   -47.9580 -19.8841 -19.8679 -19.8630 -11.3266  -0.6985   0.2272   0.6266
     9.1544  10.6762  11.2853  12.6000

          k = 0.4000-0.4000 0.0000 (  1588 PWs)   bands (ev):

   -47.9583 -19.8776 -19.8656 -19.8599 -11.4432  -0.3150   0.4471   0.7949
     8.4490  10.6011  11.5705  12.8077

          k = 0.0000 0.0000 0.8000 (  1604 PWs)   bands (ev):

   -47.9579 -19.8795 -19.8674 -19.8674 -11.3369  -0.5917   0.4302   0.4302
     8.6117   9.1841  11.8577  15.0254

          k = 0.8000-0.8000 0.0000 (  1604 PWs)   bands (ev):

   -47.9579 -19.8782 -19.8733 -19.8665 -11.2963  -0.5151   0.0070   0.4448
     9.0059   9.6902  11.7619  14.0781

          k = 1.0000-0.6000-0.2000 (  1598 PWs)   bands (ev):

   -47.9579 -19.8783 -19.8715 -19.8667 -11.3082  -0.4470   0.0240   0.3914
     9.7582  10.2289  10.6137  13.0690

     the Fermi energy is     3.3008 ev

!    total energy              =    -188.83967059 Ry
     Harris-Foulkes estimate   =    -188.83967060 Ry
     estimated scf accuracy    <          8.7E-09 Ry

     total all-electron energy =     -1248.126686 Ry

     The total energy is the sum of the following terms:

     one-electron contribution =     -80.90355544 Ry
     hartree contribution      =      47.13532220 Ry
     xc contribution           =     -25.67519290 Ry
     ewald contribution        =     -68.79919274 Ry
     one-center paw contrib.   =     -60.59705172 Ry
     smearing contrib. (-TS)   =       0.00000000 Ry

     convergence has been achieved in   6 iterations

     Forces acting on atoms (cartesian axes, Ry/au):

     atom    1 type  2   force =     0.00000000    0.00000000    0.00000000
     atom    2 type  1   force =     0.00000000    0.00000000    0.00000000

     Total force =     0.000000     Total SCF correction =     0.000000


     Computing stress (Cartesian axis) and pressure

          total   stress  (Ry/bohr**3)                   (kbar)     P=   -8.41
  -0.00005716   0.00000000   0.00000000         -8.41      0.00      0.00
   0.00000000  -0.00005716   0.00000000          0.00     -8.41      0.00
   0.00000000   0.00000000  -0.00005716          0.00      0.00     -8.41


     Writing output data file halite.save/

     init_run     :      3.49s CPU      3.55s WALL (       1 calls)
     electrons    :     16.40s CPU     16.77s WALL (       1 calls)
     forces       :      0.50s CPU      0.53s WALL (       1 calls)
     stress       :      1.05s CPU      1.15s WALL (       1 calls)

     Called by init_run:
     wfcinit      :      0.44s CPU      0.45s WALL (       1 calls)
     potinit      :      0.74s CPU      0.75s WALL (       1 calls)
     hinit0       :      2.11s CPU      2.12s WALL (       1 calls)

     Called by electrons:
     c_bands      :      8.61s CPU      8.67s WALL (       7 calls)
     sum_band     :      2.84s CPU      3.03s WALL (       7 calls)
     v_of_rho     :      0.54s CPU      0.55s WALL (       7 calls)
     newd         :      1.09s CPU      1.24s WALL (       7 calls)
     PAW_pot      :      4.03s CPU      4.04s WALL (       7 calls)
     mix_rho      :      0.07s CPU      0.07s WALL (       7 calls)

     Called by c_bands:
     init_us_2    :      0.17s CPU      0.17s WALL (     170 calls)
     cegterg      :      8.38s CPU      8.44s WALL (      70 calls)

     Called by sum_band:
     sum_band:bec :      0.00s CPU      0.00s WALL (      70 calls)
     addusdens    :      1.31s CPU      1.50s WALL (       7 calls)

     Called by *egterg:
     h_psi        :      6.69s CPU      6.74s WALL (     293 calls)
     s_psi        :      0.47s CPU      0.47s WALL (     293 calls)
     g_psi        :      0.02s CPU      0.02s WALL (     213 calls)
     cdiaghg      :      0.19s CPU      0.19s WALL (     273 calls)

     Called by h_psi:
     h_psi:pot    :      6.68s CPU      6.73s WALL (     293 calls)
     h_psi:calbec :      0.51s CPU      0.51s WALL (     293 calls)
     vloc_psi     :      5.69s CPU      5.73s WALL (     293 calls)
     add_vuspsi   :      0.48s CPU      0.48s WALL (     293 calls)

     General routines
     calbec       :      0.82s CPU      0.83s WALL (     413 calls)
     fft          :      0.47s CPU      0.47s WALL (     115 calls)
     ffts         :      0.05s CPU      0.05s WALL (      14 calls)
     fftw         :      5.81s CPU      5.85s WALL (    5516 calls)
     interpolate  :      0.05s CPU      0.05s WALL (       7 calls)

     Parallel routines

     PWSCF        :     25.69s CPU     26.28s WALL


   This run was terminated on:  18:13:48  18Feb2020            

=------------------------------------------------------------------------------=
   JOB DONE.
=------------------------------------------------------------------------------=
