     Message from routine get_command_line:
     unexpected argument # 2     :-input

     Program PWSCF v.6.4.1 starts on 18Feb2020 at 18:15:55 

     This program is part of the open-source Quantum ESPRESSO suite
     for quantum simulation of materials; please cite
         "P. Giannozzi et al., J. Phys.:Condens. Matter 21 395502 (2009);
         "P. Giannozzi et al., J. Phys.:Condens. Matter 29 465901 (2017);
          URL http://www.quantum-espresso.org", 
     in publications or presentations arising from this work. More details at
     http://www.quantum-espresso.org/quote

     Parallel version (MPI), running on     1 processors

     MPI processes distributed on     1 nodes
     Waiting for input...
     Reading input from standard input

     Current dimensions of program PWSCF are:
     Max number of different atomic species (ntypx) = 10
     Max number of k-points (npk) =  40000
     Max angular momentum in pseudopotentials (lmaxx) =  3
     Message from routine volume:
     axis vectors are left-handed

     IMPORTANT: XC functional enforced from input :
     Exchange-correlation      = PBE ( 1  4  3  4 0 0)
     Any further DFT definition will be discarded
     Please, verify this is what you really want

               file Na.pbe-spn-kjpaw_psl.1.0.0.UPF: wavefunction(s)  2P renormalized
               file Cl.pbe-n-kjpaw_psl.1.0.0.UPF: wavefunction(s)  3S 3P renormalized

     Subspace diagonalization in iterative solution of the eigenvalue problem:
     a serial algorithm will be used

     Message from routine setup:
     DEPRECATED: symmetry with ibrav=0, use correct ibrav instead

     G-vector sticks info
     --------------------
     sticks:   dense  smooth     PW     G-vecs:    dense   smooth      PW
     Sum        1675    1345    379                45671    32647    5029



     bravais-lattice index     =            0
     lattice parameter (alat)  =      10.6591  a.u.
     unit-cell volume          =     302.7633 (a.u.)^3
     number of atoms/cell      =            2
     number of atomic types    =            2
     number of electrons       =        16.00
     number of Kohn-Sham states=           12
     kinetic-energy cutoff     =      86.0000  Ry
     charge density cutoff     =     430.0000  Ry
     convergence threshold     =      1.0E-08
     mixing beta               =       0.7000
     number of iterations used =            8  plain     mixing
     Exchange-correlation      = PBE ( 1  4  3  4 0 0)

     celldm(1)=  10.659114  celldm(2)=   0.000000  celldm(3)=   0.000000
     celldm(4)=   0.000000  celldm(5)=   0.000000  celldm(6)=   0.000000

     crystal axes: (cart. coord. in units of alat)
               a(1) = (   0.500000   0.500000   0.000000 )  
               a(2) = (   0.500000   0.000000   0.500000 )  
               a(3) = (   0.000000   0.500000   0.500000 )  

     reciprocal axes: (cart. coord. in units 2 pi/alat)
               b(1) = (  1.000000  1.000000 -1.000000 )  
               b(2) = (  1.000000 -1.000000  1.000000 )  
               b(3) = ( -1.000000  1.000000  1.000000 )  


     PseudoPot. # 1 for Na read from file:
     ./Na.pbe-spn-kjpaw_psl.1.0.0.UPF
     MD5 check sum: 05b4deb74e3932c23ab016979dc8b5d4
     Pseudo is Projector augmented-wave + core cor, Zval =  9.0
     Generated using "atomic" code by A. Dal Corso v.6.3
     Shape of augmentation charge: PSQ
     Using radial grid of 1121 points,  4 beta functions with: 
                l(1) =   0
                l(2) =   0
                l(3) =   1
                l(4) =   1
     Q(r) pseudized with 0 coefficients 


     PseudoPot. # 2 for Cl read from file:
     ./Cl.pbe-n-kjpaw_psl.1.0.0.UPF
     MD5 check sum: 530da96d25dcb7781b0586ca00827062
     Pseudo is Projector augmented-wave + core cor, Zval =  7.0
     Generated using "atomic" code by A. Dal Corso v.6.3
     Shape of augmentation charge: PSQ
     Using radial grid of 1157 points,  6 beta functions with: 
                l(1) =   0
                l(2) =   0
                l(3) =   1
                l(4) =   1
                l(5) =   2
                l(6) =   2
     Q(r) pseudized with 0 coefficients 


     atomic species   valence    mass     pseudopotential
        Na             9.00    22.98900     Na( 1.00)
        Cl             7.00    35.45150     Cl( 1.00)

     48 Sym. Ops., with inversion, found



   Cartesian axes

     site n.     atom                  positions (alat units)
         1           Cl  tau(   1) = (   0.5000000   0.5000000   0.5000000  )
         2           Na  tau(   2) = (   0.0000000   0.0000000   0.0000000  )

     number of k points=    10  Marzari-Vanderbilt smearing, width (Ry)=  0.0050
                       cart. coord. in units 2pi/alat
        k(    1) = (   0.0000000   0.0000000   0.0000000), wk =   0.0160000
        k(    2) = (  -0.2000000   0.2000000   0.2000000), wk =   0.1280000
        k(    3) = (  -0.4000000   0.4000000   0.4000000), wk =   0.1280000
        k(    4) = (   0.0000000   0.0000000   0.4000000), wk =   0.0960000
        k(    5) = (  -0.2000000   0.2000000   0.6000000), wk =   0.3840000
        k(    6) = (   0.6000000  -0.6000000  -0.2000000), wk =   0.3840000
        k(    7) = (   0.4000000  -0.4000000   0.0000000), wk =   0.1920000
        k(    8) = (   0.0000000   0.0000000   0.8000000), wk =   0.0960000
        k(    9) = (   0.8000000  -0.8000000   0.0000000), wk =   0.1920000
        k(   10) = (   1.0000000  -0.6000000  -0.2000000), wk =   0.3840000

     Dense  grid:    45671 G-vectors     FFT dimensions: (  50,  50,  50)

     Smooth grid:    32647 G-vectors     FFT dimensions: (  45,  45,  45)

     Estimated max dynamical RAM per process >     184.41 MB

     Initial potential from superposition of free atoms

     starting charge   15.99370, renormalised to   16.00000
     Starting wfcs are    9 randomized atomic wfcs +    3 random wfcs
     Checking if some PAW data can be deallocated... 

     total cpu time spent up to now is        9.6 secs

     Self-consistent Calculation

     iteration #  1     ecut=    86.00 Ry     beta= 0.70
     Davidson diagonalization with overlap
     ethr =  1.00E-02,  avg # of iterations =  6.0

     Threshold (ethr) on eigenvalues was too large:
     Diagonalizing with lowered threshold

     Davidson diagonalization with overlap
     ethr =  3.57E-04,  avg # of iterations =  1.7

     total cpu time spent up to now is       19.1 secs

     total energy              =    -188.83014210 Ry
     Harris-Foulkes estimate   =    -188.86360621 Ry
     estimated scf accuracy    <       0.05353737 Ry

     iteration #  2     ecut=    86.00 Ry     beta= 0.70
     Davidson diagonalization with overlap
     ethr =  3.35E-04,  avg # of iterations =  2.0

     total cpu time spent up to now is       24.1 secs

     total energy              =    -188.84645248 Ry
     Harris-Foulkes estimate   =    -188.85453605 Ry
     estimated scf accuracy    <       0.01492359 Ry

     iteration #  3     ecut=    86.00 Ry     beta= 0.70
     Davidson diagonalization with overlap
     ethr =  9.33E-05,  avg # of iterations =  2.0

     total cpu time spent up to now is       28.9 secs

     total energy              =    -188.84973125 Ry
     Harris-Foulkes estimate   =    -188.84958850 Ry
     estimated scf accuracy    <       0.00026777 Ry

     iteration #  4     ecut=    86.00 Ry     beta= 0.70
     Davidson diagonalization with overlap
     ethr =  1.67E-06,  avg # of iterations =  4.1

     total cpu time spent up to now is       35.6 secs

     total energy              =    -188.84979059 Ry
     Harris-Foulkes estimate   =    -188.84979067 Ry
     estimated scf accuracy    <       0.00000384 Ry

     iteration #  5     ecut=    86.00 Ry     beta= 0.70
     Davidson diagonalization with overlap
     ethr =  2.40E-08,  avg # of iterations =  3.0

     total cpu time spent up to now is       41.7 secs

     total energy              =    -188.84979239 Ry
     Harris-Foulkes estimate   =    -188.84979197 Ry
     estimated scf accuracy    <       0.00000022 Ry

     iteration #  6     ecut=    86.00 Ry     beta= 0.70
     Davidson diagonalization with overlap
     ethr =  1.35E-09,  avg # of iterations =  2.0

     total cpu time spent up to now is       47.1 secs

     total energy              =    -188.84979247 Ry
     Harris-Foulkes estimate   =    -188.84979248 Ry
     estimated scf accuracy    <       0.00000003 Ry

     iteration #  7     ecut=    86.00 Ry     beta= 0.70
     Davidson diagonalization with overlap
     ethr =  1.96E-10,  avg # of iterations =  2.5

     total cpu time spent up to now is       52.9 secs

     End of self-consistent calculation

          k = 0.0000 0.0000 0.0000 (  4015 PWs)   bands (ev):

   -47.9566 -19.8690 -19.8690 -19.8690 -11.6944   0.9619   0.9619   0.9619
     6.0652  12.0014  12.0014  12.0014

          k =-0.2000 0.2000 0.2000 (  4047 PWs)   bands (ev):

   -47.9563 -19.8792 -19.8698 -19.8698 -11.5834   0.1641   0.8674   0.8674
     7.1496  11.0846  12.3137  12.3138

          k =-0.4000 0.4000 0.4000 (  4092 PWs)   bands (ev):

   -47.9559 -19.8954 -19.8710 -19.8710 -11.3942  -0.8128   0.7227   0.7227
     8.1714  11.3093  11.9522  11.9522

          k = 0.0000 0.0000 0.4000 (  4076 PWs)   bands (ev):

   -47.9562 -19.8780 -19.8718 -19.8718 -11.5533   0.1586   0.7393   0.7393
     7.5078  10.4831  12.2655  12.8867

          k =-0.2000 0.2000 0.6000 (  4088 PWs)   bands (ev):

   -47.9558 -19.8888 -19.8741 -19.8734 -11.4009  -0.5014   0.4711   0.5908
     8.7233  10.2283  11.1946  12.9314

          k = 0.6000-0.6000-0.2000 (  4096 PWs)   bands (ev):

   -47.9557 -19.8930 -19.8770 -19.8724 -11.3356  -0.7075   0.2169   0.6183
     9.1250  10.6409  11.2672  12.5382

          k = 0.4000-0.4000 0.0000 (  4059 PWs)   bands (ev):

   -47.9560 -19.8865 -19.8750 -19.8701 -11.4520  -0.3229   0.4357   0.7874
     8.4232  10.5903  11.5317  12.7387

          k = 0.0000 0.0000 0.8000 (  4080 PWs)   bands (ev):

   -47.9556 -19.8879 -19.8764 -19.8764 -11.3454  -0.6039   0.4184   0.4184
     8.5875   9.1844  11.8193  14.9714

          k = 0.8000-0.8000 0.0000 (  4091 PWs)   bands (ev):

   -47.9555 -19.8868 -19.8819 -19.8757 -11.3049  -0.5283  -0.0036   0.4339
     8.9804   9.6821  11.7361  14.0157

          k = 1.0000-0.6000-0.2000 (  4077 PWs)   bands (ev):

   -47.9556 -19.8874 -19.8803 -19.8759 -11.3170  -0.4582   0.0117   0.3826
     9.7297  10.2207  10.5833  13.0059

     the Fermi energy is     3.2575 ev

!    total energy              =    -188.84979248 Ry
     Harris-Foulkes estimate   =    -188.84979248 Ry
     estimated scf accuracy    <          9.7E-10 Ry

     total all-electron energy =     -1248.136807 Ry

     The total energy is the sum of the following terms:

     one-electron contribution =     -80.91588410 Ry
     hartree contribution      =      47.14314694 Ry
     xc contribution           =     -25.67421495 Ry
     ewald contribution        =     -68.79919271 Ry
     one-center paw contrib.   =     -60.60364766 Ry
     smearing contrib. (-TS)   =       0.00000000 Ry

     convergence has been achieved in   7 iterations

     Forces acting on atoms (cartesian axes, Ry/au):

     atom    1 type  2   force =     0.00000000    0.00000000   -0.00000000
     atom    2 type  1   force =     0.00000000    0.00000000    0.00000000

     Total force =     0.000000     Total SCF correction =     0.000000


     Computing stress (Cartesian axis) and pressure

          total   stress  (Ry/bohr**3)                   (kbar)     P=    7.17
   0.00004874   0.00000000  -0.00000000          7.17      0.00     -0.00
   0.00000000   0.00004874   0.00000000          0.00      7.17      0.00
  -0.00000000  -0.00000000   0.00004874         -0.00     -0.00      7.17


     Writing output data file halite.save/

     init_run     :      5.24s CPU      5.36s WALL (       1 calls)
     electrons    :     42.24s CPU     43.27s WALL (       1 calls)
     forces       :      1.26s CPU      1.36s WALL (       1 calls)
     stress       :      2.93s CPU      3.13s WALL (       1 calls)

     Called by init_run:
     wfcinit      :      1.07s CPU      1.08s WALL (       1 calls)
     potinit      :      0.80s CPU      0.81s WALL (       1 calls)
     hinit0       :      2.91s CPU      2.93s WALL (       1 calls)

     Called by electrons:
     c_bands      :     25.55s CPU     25.67s WALL (       8 calls)
     sum_band     :      8.45s CPU      8.93s WALL (       8 calls)
     v_of_rho     :      1.09s CPU      1.10s WALL (       8 calls)
     newd         :      3.15s CPU      3.64s WALL (       8 calls)
     PAW_pot      :      4.87s CPU      4.88s WALL (       8 calls)
     mix_rho      :      0.11s CPU      0.11s WALL (       8 calls)

     Called by c_bands:
     init_us_2    :      0.52s CPU      0.52s WALL (     190 calls)
     cegterg      :     24.85s CPU     24.96s WALL (      80 calls)

     Called by sum_band:
     sum_band:bec :      0.01s CPU      0.01s WALL (      80 calls)
     addusdens    :      4.06s CPU      4.52s WALL (       8 calls)

     Called by *egterg:
     h_psi        :     19.94s CPU     20.04s WALL (     323 calls)
     s_psi        :      1.36s CPU      1.37s WALL (     323 calls)
     g_psi        :      0.05s CPU      0.05s WALL (     233 calls)
     cdiaghg      :      0.21s CPU      0.22s WALL (     303 calls)

     Called by h_psi:
     h_psi:pot    :     19.91s CPU     20.00s WALL (     323 calls)
     h_psi:calbec :      1.50s CPU      1.50s WALL (     323 calls)
     vloc_psi     :     17.04s CPU     17.12s WALL (     323 calls)
     add_vuspsi   :      1.37s CPU      1.37s WALL (     323 calls)

     General routines
     calbec       :      2.38s CPU      2.38s WALL (     453 calls)
     fft          :      0.66s CPU      0.66s WALL (     128 calls)
     ffts         :      0.08s CPU      0.08s WALL (      16 calls)
     fftw         :     17.88s CPU     17.98s WALL (    6252 calls)
     interpolate  :      0.10s CPU      0.10s WALL (       8 calls)

     Parallel routines

     PWSCF        :     55.97s CPU     57.49s WALL


   This run was terminated on:  18:16:52  18Feb2020            

=------------------------------------------------------------------------------=
   JOB DONE.
=------------------------------------------------------------------------------=
