     Message from routine get_command_line:
     unexpected argument # 2     :-input

     Program PWSCF v.6.4.1 starts on 18Feb2020 at 18:13:49 

     This program is part of the open-source Quantum ESPRESSO suite
     for quantum simulation of materials; please cite
         "P. Giannozzi et al., J. Phys.:Condens. Matter 21 395502 (2009);
         "P. Giannozzi et al., J. Phys.:Condens. Matter 29 465901 (2017);
          URL http://www.quantum-espresso.org", 
     in publications or presentations arising from this work. More details at
     http://www.quantum-espresso.org/quote

     Parallel version (MPI), running on     1 processors

     MPI processes distributed on     1 nodes
     Waiting for input...
     Reading input from standard input

     Current dimensions of program PWSCF are:
     Max number of different atomic species (ntypx) = 10
     Max number of k-points (npk) =  40000
     Max angular momentum in pseudopotentials (lmaxx) =  3
     Message from routine volume:
     axis vectors are left-handed

     IMPORTANT: XC functional enforced from input :
     Exchange-correlation      = PBE ( 1  4  3  4 0 0)
     Any further DFT definition will be discarded
     Please, verify this is what you really want

               file Na.pbe-spn-kjpaw_psl.1.0.0.UPF: wavefunction(s)  2P renormalized
               file Cl.pbe-n-kjpaw_psl.1.0.0.UPF: wavefunction(s)  3S 3P renormalized

     Subspace diagonalization in iterative solution of the eigenvalue problem:
     a serial algorithm will be used

     Message from routine setup:
     DEPRECATED: symmetry with ibrav=0, use correct ibrav instead

     G-vector sticks info
     --------------------
     sticks:   dense  smooth     PW     G-vecs:    dense   smooth      PW
     Sum        1099     871    253                23973    17153    2741



     bravais-lattice index     =            0
     lattice parameter (alat)  =      10.6591  a.u.
     unit-cell volume          =     302.7633 (a.u.)^3
     number of atoms/cell      =            2
     number of atomic types    =            2
     number of electrons       =        16.00
     number of Kohn-Sham states=           12
     kinetic-energy cutoff     =      56.0000  Ry
     charge density cutoff     =     280.0000  Ry
     convergence threshold     =      1.0E-08
     mixing beta               =       0.7000
     number of iterations used =            8  plain     mixing
     Exchange-correlation      = PBE ( 1  4  3  4 0 0)

     celldm(1)=  10.659114  celldm(2)=   0.000000  celldm(3)=   0.000000
     celldm(4)=   0.000000  celldm(5)=   0.000000  celldm(6)=   0.000000

     crystal axes: (cart. coord. in units of alat)
               a(1) = (   0.500000   0.500000   0.000000 )  
               a(2) = (   0.500000   0.000000   0.500000 )  
               a(3) = (   0.000000   0.500000   0.500000 )  

     reciprocal axes: (cart. coord. in units 2 pi/alat)
               b(1) = (  1.000000  1.000000 -1.000000 )  
               b(2) = (  1.000000 -1.000000  1.000000 )  
               b(3) = ( -1.000000  1.000000  1.000000 )  


     PseudoPot. # 1 for Na read from file:
     ./Na.pbe-spn-kjpaw_psl.1.0.0.UPF
     MD5 check sum: 05b4deb74e3932c23ab016979dc8b5d4
     Pseudo is Projector augmented-wave + core cor, Zval =  9.0
     Generated using "atomic" code by A. Dal Corso v.6.3
     Shape of augmentation charge: PSQ
     Using radial grid of 1121 points,  4 beta functions with: 
                l(1) =   0
                l(2) =   0
                l(3) =   1
                l(4) =   1
     Q(r) pseudized with 0 coefficients 


     PseudoPot. # 2 for Cl read from file:
     ./Cl.pbe-n-kjpaw_psl.1.0.0.UPF
     MD5 check sum: 530da96d25dcb7781b0586ca00827062
     Pseudo is Projector augmented-wave + core cor, Zval =  7.0
     Generated using "atomic" code by A. Dal Corso v.6.3
     Shape of augmentation charge: PSQ
     Using radial grid of 1157 points,  6 beta functions with: 
                l(1) =   0
                l(2) =   0
                l(3) =   1
                l(4) =   1
                l(5) =   2
                l(6) =   2
     Q(r) pseudized with 0 coefficients 


     atomic species   valence    mass     pseudopotential
        Na             9.00    22.98900     Na( 1.00)
        Cl             7.00    35.45150     Cl( 1.00)

     48 Sym. Ops., with inversion, found



   Cartesian axes

     site n.     atom                  positions (alat units)
         1           Cl  tau(   1) = (   0.5000000   0.5000000   0.5000000  )
         2           Na  tau(   2) = (   0.0000000   0.0000000   0.0000000  )

     number of k points=    10  Marzari-Vanderbilt smearing, width (Ry)=  0.0050
                       cart. coord. in units 2pi/alat
        k(    1) = (   0.0000000   0.0000000   0.0000000), wk =   0.0160000
        k(    2) = (  -0.2000000   0.2000000   0.2000000), wk =   0.1280000
        k(    3) = (  -0.4000000   0.4000000   0.4000000), wk =   0.1280000
        k(    4) = (   0.0000000   0.0000000   0.4000000), wk =   0.0960000
        k(    5) = (  -0.2000000   0.2000000   0.6000000), wk =   0.3840000
        k(    6) = (   0.6000000  -0.6000000  -0.2000000), wk =   0.3840000
        k(    7) = (   0.4000000  -0.4000000   0.0000000), wk =   0.1920000
        k(    8) = (   0.0000000   0.0000000   0.8000000), wk =   0.0960000
        k(    9) = (   0.8000000  -0.8000000   0.0000000), wk =   0.1920000
        k(   10) = (   1.0000000  -0.6000000  -0.2000000), wk =   0.3840000

     Dense  grid:    23973 G-vectors     FFT dimensions: (  45,  45,  45)

     Smooth grid:    17153 G-vectors     FFT dimensions: (  36,  36,  36)

     Estimated max dynamical RAM per process >     100.15 MB

     Check: negative core charge=   -0.000005

     Initial potential from superposition of free atoms

     starting charge   15.99370, renormalised to   16.00000
     Starting wfcs are    9 randomized atomic wfcs +    3 random wfcs
     Checking if some PAW data can be deallocated... 

     total cpu time spent up to now is        8.2 secs

     Self-consistent Calculation

     iteration #  1     ecut=    56.00 Ry     beta= 0.70
     Davidson diagonalization with overlap
     ethr =  1.00E-02,  avg # of iterations =  7.0

     Threshold (ethr) on eigenvalues was too large:
     Diagonalizing with lowered threshold

     Davidson diagonalization with overlap
     ethr =  3.26E-04,  avg # of iterations =  1.2

     total cpu time spent up to now is       13.1 secs

     total energy              =    -188.82648183 Ry
     Harris-Foulkes estimate   =    -188.85760685 Ry
     estimated scf accuracy    <       0.05118438 Ry

     iteration #  2     ecut=    56.00 Ry     beta= 0.70
     Davidson diagonalization with overlap
     ethr =  3.20E-04,  avg # of iterations =  2.8

     total cpu time spent up to now is       16.0 secs

     total energy              =    -188.84016686 Ry
     Harris-Foulkes estimate   =    -188.84696670 Ry
     estimated scf accuracy    <       0.01246781 Ry

     iteration #  3     ecut=    56.00 Ry     beta= 0.70
     Davidson diagonalization with overlap
     ethr =  7.79E-05,  avg # of iterations =  2.0

     total cpu time spent up to now is       18.6 secs

     total energy              =    -188.84300834 Ry
     Harris-Foulkes estimate   =    -188.84288558 Ry
     estimated scf accuracy    <       0.00026613 Ry

     iteration #  4     ecut=    56.00 Ry     beta= 0.70
     Davidson diagonalization with overlap
     ethr =  1.66E-06,  avg # of iterations =  3.5

     total cpu time spent up to now is       21.8 secs

     total energy              =    -188.84305430 Ry
     Harris-Foulkes estimate   =    -188.84305228 Ry
     estimated scf accuracy    <       0.00000100 Ry

     iteration #  5     ecut=    56.00 Ry     beta= 0.70
     Davidson diagonalization with overlap
     ethr =  6.24E-09,  avg # of iterations =  3.4

     total cpu time spent up to now is       24.9 secs

     total energy              =    -188.84305531 Ry
     Harris-Foulkes estimate   =    -188.84305527 Ry
     estimated scf accuracy    <       0.00000005 Ry

     iteration #  6     ecut=    56.00 Ry     beta= 0.70
     Davidson diagonalization with overlap
     ethr =  3.07E-10,  avg # of iterations =  2.3

     total cpu time spent up to now is       27.8 secs

     End of self-consistent calculation

          k = 0.0000 0.0000 0.0000 (  2109 PWs)   bands (ev):

   -47.9478 -19.8576 -19.8576 -19.8576 -11.6934   0.9637   0.9637   0.9637
     6.0695  12.0005  12.0006  12.0006

          k =-0.2000 0.2000 0.2000 (  2127 PWs)   bands (ev):

   -47.9476 -19.8680 -19.8585 -19.8585 -11.5823   0.1658   0.8689   0.8689
     7.1553  11.0873  12.3179  12.3179

          k =-0.4000 0.4000 0.4000 (  2144 PWs)   bands (ev):

   -47.9472 -19.8843 -19.8598 -19.8598 -11.3931  -0.8115   0.7239   0.7239
     8.1803  11.3145  11.9681  11.9681

          k = 0.0000 0.0000 0.4000 (  2137 PWs)   bands (ev):

   -47.9475 -19.8668 -19.8606 -19.8606 -11.5522   0.1600   0.7412   0.7412
     7.5128  10.4835  12.2841  12.8906

          k =-0.2000 0.2000 0.6000 (  2133 PWs)   bands (ev):

   -47.9471 -19.8774 -19.8629 -19.8621 -11.3998  -0.4997   0.4728   0.5926
     8.7303  10.2312  11.2095  12.9451

          k = 0.6000-0.6000-0.2000 (  2151 PWs)   bands (ev):

   -47.9470 -19.8819 -19.8660 -19.8611 -11.3345  -0.7059   0.2188   0.6197
     9.1338  10.6510  11.2731  12.5577

          k = 0.4000-0.4000 0.0000 (  2133 PWs)   bands (ev):

   -47.9473 -19.8752 -19.8638 -19.8589 -11.4509  -0.3215   0.4379   0.7885
     8.4304  10.5942  11.5436  12.7598

          k = 0.0000 0.0000 0.8000 (  2136 PWs)   bands (ev):

   -47.9469 -19.8767 -19.8651 -19.8651 -11.3443  -0.6015   0.4206   0.4206
     8.5946   9.1852  11.8323  14.9878

          k = 0.8000-0.8000 0.0000 (  2147 PWs)   bands (ev):

   -47.9469 -19.8757 -19.8707 -19.8644 -11.3038  -0.5258  -0.0017   0.4360
     8.9883   9.6851  11.7448  14.0363

          k = 1.0000-0.6000-0.2000 (  2156 PWs)   bands (ev):

   -47.9470 -19.8763 -19.8692 -19.8648 -11.3158  -0.4561   0.0140   0.3840
     9.7378  10.2240  10.5928  13.0251

     the Fermi energy is     3.2724 ev

!    total energy              =    -188.84305534 Ry
     Harris-Foulkes estimate   =    -188.84305534 Ry
     estimated scf accuracy    <          7.5E-09 Ry

     total all-electron energy =     -1248.130070 Ry

     The total energy is the sum of the following terms:

     one-electron contribution =     -80.91223305 Ry
     hartree contribution      =      47.13936053 Ry
     xc contribution           =     -25.67451305 Ry
     ewald contribution        =     -68.79919271 Ry
     one-center paw contrib.   =     -60.59647705 Ry
     smearing contrib. (-TS)   =       0.00000000 Ry

     convergence has been achieved in   6 iterations

     Forces acting on atoms (cartesian axes, Ry/au):

     atom    1 type  2   force =     0.00000000    0.00000000    0.00000000
     atom    2 type  1   force =     0.00000000    0.00000000    0.00000000

     Total force =     0.000000     Total SCF correction =     0.000000


     Computing stress (Cartesian axis) and pressure

          total   stress  (Ry/bohr**3)                   (kbar)     P=    4.41
   0.00002997   0.00000000   0.00000000          4.41      0.00      0.00
   0.00000000   0.00002997   0.00000000          0.00      4.41      0.00
   0.00000000   0.00000000   0.00002997          0.00      0.00      4.41


     Writing output data file halite.save/

     init_run     :      3.83s CPU      3.92s WALL (       1 calls)
     electrons    :     19.16s CPU     19.64s WALL (       1 calls)
     forces       :      0.80s CPU      0.82s WALL (       1 calls)
     stress       :      1.46s CPU      1.53s WALL (       1 calls)

     Called by init_run:
     wfcinit      :      0.51s CPU      0.53s WALL (       1 calls)
     potinit      :      0.74s CPU      0.74s WALL (       1 calls)
     hinit0       :      2.32s CPU      2.33s WALL (       1 calls)

     Called by electrons:
     c_bands      :     10.16s CPU     10.21s WALL (       7 calls)
     sum_band     :      3.50s CPU      3.72s WALL (       7 calls)
     v_of_rho     :      0.70s CPU      0.70s WALL (       7 calls)
     newd         :      1.46s CPU      1.71s WALL (       7 calls)
     PAW_pot      :      4.09s CPU      4.10s WALL (       7 calls)
     mix_rho      :      0.06s CPU      0.06s WALL (       7 calls)

     Called by c_bands:
     init_us_2    :      0.23s CPU      0.23s WALL (     170 calls)
     cegterg      :      9.85s CPU      9.91s WALL (      70 calls)

     Called by sum_band:
     sum_band:bec :      0.00s CPU      0.00s WALL (      70 calls)
     addusdens    :      1.79s CPU      2.00s WALL (       7 calls)

     Called by *egterg:
     h_psi        :      7.52s CPU      7.57s WALL (     302 calls)
     s_psi        :      0.63s CPU      0.64s WALL (     302 calls)
     g_psi        :      0.02s CPU      0.02s WALL (     222 calls)
     cdiaghg      :      0.20s CPU      0.20s WALL (     282 calls)

     Called by h_psi:
     h_psi:pot    :      7.51s CPU      7.55s WALL (     302 calls)
     h_psi:calbec :      0.69s CPU      0.69s WALL (     302 calls)
     vloc_psi     :      6.18s CPU      6.22s WALL (     302 calls)
     add_vuspsi   :      0.63s CPU      0.63s WALL (     302 calls)

     General routines
     calbec       :      1.15s CPU      1.15s WALL (     422 calls)
     fft          :      0.52s CPU      0.52s WALL (     115 calls)
     ffts         :      0.05s CPU      0.05s WALL (      14 calls)
     fftw         :      6.36s CPU      6.40s WALL (    5548 calls)
     interpolate  :      0.07s CPU      0.07s WALL (       7 calls)

     Parallel routines

     PWSCF        :     29.52s CPU     30.21s WALL


   This run was terminated on:  18:14:20  18Feb2020            

=------------------------------------------------------------------------------=
   JOB DONE.
=------------------------------------------------------------------------------=
