     Message from routine get_command_line:
     unexpected argument # 2     :-input

     Program PWSCF v.6.4.1 starts on 18Feb2020 at  8:18:36 

     This program is part of the open-source Quantum ESPRESSO suite
     for quantum simulation of materials; please cite
         "P. Giannozzi et al., J. Phys.:Condens. Matter 21 395502 (2009);
         "P. Giannozzi et al., J. Phys.:Condens. Matter 29 465901 (2017);
          URL http://www.quantum-espresso.org", 
     in publications or presentations arising from this work. More details at
     http://www.quantum-espresso.org/quote

     Parallel version (MPI), running on     1 processors

     MPI processes distributed on     1 nodes
     Waiting for input...
     Reading input from standard input

     Current dimensions of program PWSCF are:
     Max number of different atomic species (ntypx) = 10
     Max number of k-points (npk) =  40000
     Max angular momentum in pseudopotentials (lmaxx) =  3
     Message from routine volume:
     axis vectors are left-handed

     IMPORTANT: XC functional enforced from input :
     Exchange-correlation      = PBE ( 1  4  3  4 0 0)
     Any further DFT definition will be discarded
     Please, verify this is what you really want

               file Na.pbe-spn-kjpaw_psl.1.0.0.UPF: wavefunction(s)  2P renormalized
               file Cl.pbe-n-kjpaw_psl.1.0.0.UPF: wavefunction(s)  3S 3P renormalized

     Subspace diagonalization in iterative solution of the eigenvalue problem:
     a serial algorithm will be used

     Message from routine setup:
     DEPRECATED: symmetry with ibrav=0, use correct ibrav instead

     G-vector sticks info
     --------------------
     sticks:   dense  smooth     PW     G-vecs:    dense   smooth      PW
     Sum        2677    2107    595                90777    64767    9721



     bravais-lattice index     =            0
     lattice parameter (alat)  =      10.6591  a.u.
     unit-cell volume          =     302.7633 (a.u.)^3
     number of atoms/cell      =            2
     number of atomic types    =            2
     number of electrons       =        16.00
     number of Kohn-Sham states=           12
     kinetic-energy cutoff     =     136.0000  Ry
     charge density cutoff     =     680.0000  Ry
     convergence threshold     =      1.0E-08
     mixing beta               =       0.7000
     number of iterations used =            8  plain     mixing
     Exchange-correlation      = PBE ( 1  4  3  4 0 0)

     celldm(1)=  10.659114  celldm(2)=   0.000000  celldm(3)=   0.000000
     celldm(4)=   0.000000  celldm(5)=   0.000000  celldm(6)=   0.000000

     crystal axes: (cart. coord. in units of alat)
               a(1) = (   0.500000   0.500000   0.000000 )  
               a(2) = (   0.500000   0.000000   0.500000 )  
               a(3) = (   0.000000   0.500000   0.500000 )  

     reciprocal axes: (cart. coord. in units 2 pi/alat)
               b(1) = (  1.000000  1.000000 -1.000000 )  
               b(2) = (  1.000000 -1.000000  1.000000 )  
               b(3) = ( -1.000000  1.000000  1.000000 )  


     PseudoPot. # 1 for Na read from file:
     ./Na.pbe-spn-kjpaw_psl.1.0.0.UPF
     MD5 check sum: 05b4deb74e3932c23ab016979dc8b5d4
     Pseudo is Projector augmented-wave + core cor, Zval =  9.0
     Generated using "atomic" code by A. Dal Corso v.6.3
     Shape of augmentation charge: PSQ
     Using radial grid of 1121 points,  4 beta functions with: 
                l(1) =   0
                l(2) =   0
                l(3) =   1
                l(4) =   1
     Q(r) pseudized with 0 coefficients 


     PseudoPot. # 2 for Cl read from file:
     ./Cl.pbe-n-kjpaw_psl.1.0.0.UPF
     MD5 check sum: 530da96d25dcb7781b0586ca00827062
     Pseudo is Projector augmented-wave + core cor, Zval =  7.0
     Generated using "atomic" code by A. Dal Corso v.6.3
     Shape of augmentation charge: PSQ
     Using radial grid of 1157 points,  6 beta functions with: 
                l(1) =   0
                l(2) =   0
                l(3) =   1
                l(4) =   1
                l(5) =   2
                l(6) =   2
     Q(r) pseudized with 0 coefficients 


     atomic species   valence    mass     pseudopotential
        Na             9.00    22.98900     Na( 1.00)
        Cl             7.00    35.45150     Cl( 1.00)

     48 Sym. Ops., with inversion, found



   Cartesian axes

     site n.     atom                  positions (alat units)
         1           Cl  tau(   1) = (   0.5000000   0.5000000   0.5000000  )
         2           Na  tau(   2) = (   0.0000000   0.0000000   0.0000000  )

     number of k points=    20  Marzari-Vanderbilt smearing, width (Ry)=  0.0050
                       cart. coord. in units 2pi/alat
        k(    1) = (   0.0000000   0.0000000   0.0000000), wk =   0.0058309
        k(    2) = (  -0.1428571   0.1428571   0.1428571), wk =   0.0466472
        k(    3) = (  -0.2857143   0.2857143   0.2857143), wk =   0.0466472
        k(    4) = (  -0.4285714   0.4285714   0.4285714), wk =   0.0466472
        k(    5) = (   0.0000000   0.0000000   0.2857143), wk =   0.0349854
        k(    6) = (  -0.1428571   0.1428571   0.4285714), wk =   0.1399417
        k(    7) = (  -0.2857143   0.2857143   0.5714286), wk =   0.1399417
        k(    8) = (   0.5714286  -0.5714286  -0.2857143), wk =   0.1399417
        k(    9) = (   0.4285714  -0.4285714  -0.1428571), wk =   0.1399417
        k(   10) = (   0.2857143  -0.2857143  -0.0000000), wk =   0.0699708
        k(   11) = (   0.0000000   0.0000000   0.5714286), wk =   0.0349854
        k(   12) = (  -0.1428571   0.1428571   0.7142857), wk =   0.1399417
        k(   13) = (   0.7142857  -0.7142857  -0.1428571), wk =   0.1399417
        k(   14) = (   0.5714286  -0.5714286   0.0000000), wk =   0.0699708
        k(   15) = (   0.0000000   0.0000000   0.8571429), wk =   0.0349854
        k(   16) = (   0.8571429  -0.8571429  -0.0000000), wk =   0.0699708
        k(   17) = (   0.0000000   0.2857143   0.5714286), wk =   0.1399417
        k(   18) = (   0.8571429  -0.5714286  -0.2857143), wk =   0.2798834
        k(   19) = (   1.0000000  -0.7142857  -0.1428571), wk =   0.1399417
        k(   20) = (   0.8571429  -0.5714286   0.0000000), wk =   0.1399417

     Dense  grid:    90777 G-vectors     FFT dimensions: (  64,  64,  64)

     Smooth grid:    64767 G-vectors     FFT dimensions: (  60,  60,  60)

     Estimated max dynamical RAM per process >     378.22 MB

     Initial potential from superposition of free atoms

     starting charge   15.99370, renormalised to   16.00000
     Starting wfcs are    9 randomized atomic wfcs +    3 random wfcs
     Checking if some PAW data can be deallocated... 

     total cpu time spent up to now is       17.0 secs

     Self-consistent Calculation

     iteration #  1     ecut=   136.00 Ry     beta= 0.70
     Davidson diagonalization with overlap
     ethr =  1.00E-02,  avg # of iterations =  5.8

     Threshold (ethr) on eigenvalues was too large:
     Diagonalizing with lowered threshold

     Davidson diagonalization with overlap
     ethr =  3.34E-04,  avg # of iterations =  1.2

     total cpu time spent up to now is       57.0 secs

     total energy              =    -188.83336127 Ry
     Harris-Foulkes estimate   =    -188.86475369 Ry
     estimated scf accuracy    <       0.05112607 Ry

     iteration #  2     ecut=   136.00 Ry     beta= 0.70
     Davidson diagonalization with overlap
     ethr =  3.20E-04,  avg # of iterations =  2.1

     total cpu time spent up to now is       76.4 secs

     total energy              =    -188.84738817 Ry
     Harris-Foulkes estimate   =    -188.85420790 Ry
     estimated scf accuracy    <       0.01259096 Ry

     iteration #  3     ecut=   136.00 Ry     beta= 0.70
     Davidson diagonalization with overlap
     ethr =  7.87E-05,  avg # of iterations =  2.4

     total cpu time spent up to now is       97.8 secs

     total energy              =    -188.85023385 Ry
     Harris-Foulkes estimate   =    -188.85011525 Ry
     estimated scf accuracy    <       0.00026075 Ry

     iteration #  4     ecut=   136.00 Ry     beta= 0.70
     Davidson diagonalization with overlap
     ethr =  1.63E-06,  avg # of iterations =  3.8

     total cpu time spent up to now is      132.0 secs

     total energy              =    -188.85028769 Ry
     Harris-Foulkes estimate   =    -188.85028593 Ry
     estimated scf accuracy    <       0.00000137 Ry

     iteration #  5     ecut=   136.00 Ry     beta= 0.70
     Davidson diagonalization with overlap
     ethr =  8.54E-09,  avg # of iterations =  3.1

     total cpu time spent up to now is      155.3 secs

     total energy              =    -188.85028895 Ry
     Harris-Foulkes estimate   =    -188.85028879 Ry
     estimated scf accuracy    <       0.00000009 Ry

     iteration #  6     ecut=   136.00 Ry     beta= 0.70
     Davidson diagonalization with overlap
     ethr =  5.60E-10,  avg # of iterations =  2.7

     total cpu time spent up to now is      175.4 secs

     End of self-consistent calculation

          k = 0.0000 0.0000 0.0000 (  7991 PWs)   bands (ev):

   -47.9566 -19.8695 -19.8695 -19.8695 -11.6948   0.9617   0.9617   0.9617
     6.0647  12.0011  12.0011  12.0011

          k =-0.1429 0.1429 0.1429 (  8069 PWs)   bands (ev):

   -47.9564 -19.8750 -19.8699 -19.8699 -11.6348   0.4979   0.9096   0.9096
     6.6923  11.3760  12.2319  12.2319

          k =-0.2857 0.2857 0.2857 (  8075 PWs)   bands (ev):

   -47.9561 -19.8873 -19.8708 -19.8708 -11.4954  -0.3318   0.7972   0.7972
     7.7741  10.9254  12.2063  12.2063

          k =-0.4286 0.4286 0.4286 (  8092 PWs)   bands (ev):

   -47.9558 -19.8971 -19.8715 -19.8715 -11.3784  -0.8839   0.7110   0.7110
     8.2017  11.4327  11.9089  11.9089

          k = 0.0000 0.0000 0.2857 (  8080 PWs)   bands (ev):

   -47.9564 -19.8746 -19.8710 -19.8710 -11.6168   0.4755   0.8377   0.8377
     6.8969  11.0287  12.4685  12.4685

          k =-0.1429 0.1429 0.4286 (  8102 PWs)   bands (ev):

   -47.9561 -19.8832 -19.8723 -19.8718 -11.5084  -0.1201   0.7116   0.7160
     7.8758  10.4863  11.8988  12.7248

          k =-0.2857 0.2857 0.5714 (  8098 PWs)   bands (ev):

   -47.9558 -19.8928 -19.8733 -19.8729 -11.3869  -0.6724   0.5370   0.6366
     8.6002  10.7802  11.3423  12.4261

          k = 0.5714-0.5714-0.2857 (  8120 PWs)   bands (ev):

   -47.9557 -19.8957 -19.8748 -19.8722 -11.3471  -0.8269   0.4281   0.6537
     8.7370  10.9895  11.4944  12.2267

          k = 0.4286-0.4286-0.1429 (  8107 PWs)   bands (ev):

   -47.9559 -19.8902 -19.8747 -19.8709 -11.4219  -0.5148   0.4749   0.7560
     8.5025  10.7713  11.4889  12.3962

          k = 0.2857-0.2857-0.0000 (  8100 PWs)   bands (ev):

   -47.9562 -19.8809 -19.8726 -19.8698 -11.5501   0.0602   0.6876   0.8716
     7.5082  10.8393  12.1311  12.6855

          k = 0.0000 0.0000 0.5714 (  8120 PWs)   bands (ev):

   -47.9559 -19.8838 -19.8744 -19.8744 -11.4514  -0.2612   0.5811   0.5811
     8.3388   9.7830  11.5368  13.6923

          k =-0.1429 0.1429 0.7143 (  8104 PWs)   bands (ev):

   -47.9557 -19.8882 -19.8768 -19.8754 -11.3655  -0.5238   0.3477   0.4944
     8.8712   9.6764  11.2657  13.6891

          k = 0.7143-0.7143-0.1429 (  8113 PWs)   bands (ev):

   -47.9556 -19.8895 -19.8809 -19.8746 -11.3159  -0.5394  -0.0193   0.5142
     9.2904  10.1940  11.2203  13.2184

          k = 0.5714-0.5714 0.0000 (  8126 PWs)   bands (ev):

   -47.9557 -19.8897 -19.8807 -19.8726 -11.3416  -0.4929  -0.0173   0.6279
     9.5357  10.5185  10.7848  12.8465

          k = 0.0000 0.0000 0.8571 (  8136 PWs)   bands (ev):

   -47.9556 -19.8889 -19.8771 -19.8771 -11.3300  -0.6488   0.3935   0.3935
     8.5422   9.1008  12.0162  15.2863

          k = 0.8571-0.8571-0.0000 (  8110 PWs)   bands (ev):

   -47.9555 -19.8883 -19.8801 -19.8768 -11.3079  -0.6085   0.1571   0.4018
     8.7725   9.3640  11.9783  14.4708

          k = 0.0000 0.2857 0.5714 (  8089 PWs)   bands (ev):

   -47.9559 -19.8875 -19.8763 -19.8726 -11.4125  -0.4067   0.3804   0.6422
     8.8171  10.1771  11.1186  13.1300

          k = 0.8571-0.5714-0.2857 (  8115 PWs)   bands (ev):

   -47.9557 -19.8908 -19.8786 -19.8741 -11.3336  -0.5864   0.1360   0.5241
     9.4657  10.3726  10.8442  12.8393

          k = 1.0000-0.7143-0.1429 (  8118 PWs)   bands (ev):

   -47.9556 -19.8878 -19.8793 -19.8776 -11.3160  -0.5304   0.1587   0.3301
     9.2007   9.6948  11.3242  13.5007

          k = 0.8571-0.5714 0.0000 (  8115 PWs)   bands (ev):

   -47.9556 -19.8849 -19.8843 -19.8769 -11.3019  -0.2961  -0.2324   0.3478
     9.7000  10.2183  10.9859  12.6706

     the Fermi energy is     3.5133 ev

!    total energy              =    -188.85028899 Ry
     Harris-Foulkes estimate   =    -188.85028899 Ry
     estimated scf accuracy    <          1.5E-09 Ry

     total all-electron energy =     -1248.137304 Ry

     The total energy is the sum of the following terms:

     one-electron contribution =     -80.91661030 Ry
     hartree contribution      =      47.14393528 Ry
     xc contribution           =     -25.67426418 Ry
     ewald contribution        =     -68.79919271 Ry
     one-center paw contrib.   =     -60.60415708 Ry
     smearing contrib. (-TS)   =       0.00000000 Ry

     convergence has been achieved in   6 iterations

     Forces acting on atoms (cartesian axes, Ry/au):

     atom    1 type  2   force =     0.00000000    0.00000000    0.00000000
     atom    2 type  1   force =     0.00000000   -0.00000000    0.00000000

     Total force =     0.000000     Total SCF correction =     0.000000


     Computing stress (Cartesian axis) and pressure

          total   stress  (Ry/bohr**3)                   (kbar)     P=    7.96
   0.00005411   0.00000000  -0.00000000          7.96      0.00     -0.00
  -0.00000000   0.00005411  -0.00000000         -0.00      7.96     -0.00
  -0.00000000  -0.00000000   0.00005411         -0.00     -0.00      7.96


     Writing output data file halite.save/

     init_run     :     11.16s CPU     11.86s WALL (       1 calls)
     electrons    :    140.36s CPU    158.65s WALL (       1 calls)
     forces       :      2.94s CPU      3.25s WALL (       1 calls)
     stress       :      6.57s CPU      7.12s WALL (       1 calls)

     Called by init_run:
     wfcinit      :      5.15s CPU      5.40s WALL (       1 calls)
     potinit      :      1.01s CPU      1.03s WALL (       1 calls)
     hinit0       :      3.97s CPU      4.20s WALL (       1 calls)

     Called by electrons:
     c_bands      :    102.27s CPU    113.60s WALL (       7 calls)
     sum_band     :     27.54s CPU     29.72s WALL (       7 calls)
     v_of_rho     :      1.77s CPU      2.36s WALL (       7 calls)
     newd         :      5.66s CPU      6.90s WALL (       7 calls)
     PAW_pot      :      4.37s CPU      4.94s WALL (       7 calls)
     mix_rho      :      0.19s CPU      1.10s WALL (       7 calls)

     Called by c_bands:
     init_us_2    :      1.83s CPU      1.86s WALL (     340 calls)
     cegterg      :     99.71s CPU    110.96s WALL (     140 calls)

     Called by sum_band:
     sum_band:bec :      0.01s CPU      0.01s WALL (     140 calls)
     addusdens    :      7.37s CPU      9.08s WALL (       7 calls)

     Called by *egterg:
     h_psi        :     83.25s CPU     84.68s WALL (     584 calls)
     s_psi        :      4.98s CPU      6.28s WALL (     584 calls)
     g_psi        :      0.18s CPU      0.18s WALL (     424 calls)
     cdiaghg      :      0.41s CPU      2.57s WALL (     544 calls)

     Called by h_psi:
     h_psi:pot    :     83.11s CPU     84.54s WALL (     584 calls)
     h_psi:calbec :      5.56s CPU      5.63s WALL (     584 calls)
     vloc_psi     :     72.61s CPU     73.55s WALL (     584 calls)
     add_vuspsi   :      4.94s CPU      5.00s WALL (     584 calls)

     General routines
     calbec       :      8.92s CPU      9.06s WALL (     824 calls)
     fft          :      0.58s CPU      0.67s WALL (     115 calls)
     ffts         :      0.19s CPU      0.28s WALL (      14 calls)
     fftw         :     77.55s CPU     78.62s WALL (   11054 calls)
     interpolate  :      0.19s CPU      0.29s WALL (       7 calls)

     Parallel routines

     PWSCF        :   2m45.91s CPU   3m 8.63s WALL


   This run was terminated on:   8:21:44  18Feb2020            

=------------------------------------------------------------------------------=
   JOB DONE.
=------------------------------------------------------------------------------=
