     Message from routine get_command_line:
     unexpected argument # 2     :-input

     Program PWSCF v.6.4.1 starts on 18Feb2020 at  9:33:59 

     This program is part of the open-source Quantum ESPRESSO suite
     for quantum simulation of materials; please cite
         "P. Giannozzi et al., J. Phys.:Condens. Matter 21 395502 (2009);
         "P. Giannozzi et al., J. Phys.:Condens. Matter 29 465901 (2017);
          URL http://www.quantum-espresso.org", 
     in publications or presentations arising from this work. More details at
     http://www.quantum-espresso.org/quote

     Parallel version (MPI), running on     1 processors

     MPI processes distributed on     1 nodes
     Waiting for input...
     Reading input from standard input

     Current dimensions of program PWSCF are:
     Max number of different atomic species (ntypx) = 10
     Max number of k-points (npk) =  40000
     Max angular momentum in pseudopotentials (lmaxx) =  3
     Message from routine volume:
     axis vectors are left-handed

     IMPORTANT: XC functional enforced from input :
     Exchange-correlation      = PBE ( 1  4  3  4 0 0)
     Any further DFT definition will be discarded
     Please, verify this is what you really want

               file Na.pbe-spn-kjpaw_psl.1.0.0.UPF: wavefunction(s)  2P renormalized
               file Cl.pbe-n-kjpaw_psl.1.0.0.UPF: wavefunction(s)  3S 3P renormalized

     Subspace diagonalization in iterative solution of the eigenvalue problem:
     a serial algorithm will be used

     Message from routine setup:
     DEPRECATED: symmetry with ibrav=0, use correct ibrav instead

     G-vector sticks info
     --------------------
     sticks:   dense  smooth     PW     G-vecs:    dense   smooth      PW
     Sum        2479    1417    421                81043    35053    5577



     bravais-lattice index     =            0
     lattice parameter (alat)  =      10.6591  a.u.
     unit-cell volume          =     302.7633 (a.u.)^3
     number of atoms/cell      =            2
     number of atomic types    =            2
     number of electrons       =        16.00
     number of Kohn-Sham states=           12
     kinetic-energy cutoff     =      90.0000  Ry
     charge density cutoff     =     630.0000  Ry
     convergence threshold     =      1.0E-08
     mixing beta               =       0.7000
     number of iterations used =            8  plain     mixing
     Exchange-correlation      = PBE ( 1  4  3  4 0 0)

     celldm(1)=  10.659114  celldm(2)=   0.000000  celldm(3)=   0.000000
     celldm(4)=   0.000000  celldm(5)=   0.000000  celldm(6)=   0.000000

     crystal axes: (cart. coord. in units of alat)
               a(1) = (   0.500000   0.500000   0.000000 )  
               a(2) = (   0.500000   0.000000   0.500000 )  
               a(3) = (   0.000000   0.500000   0.500000 )  

     reciprocal axes: (cart. coord. in units 2 pi/alat)
               b(1) = (  1.000000  1.000000 -1.000000 )  
               b(2) = (  1.000000 -1.000000  1.000000 )  
               b(3) = ( -1.000000  1.000000  1.000000 )  


     PseudoPot. # 1 for Na read from file:
     ./Na.pbe-spn-kjpaw_psl.1.0.0.UPF
     MD5 check sum: 05b4deb74e3932c23ab016979dc8b5d4
     Pseudo is Projector augmented-wave + core cor, Zval =  9.0
     Generated using "atomic" code by A. Dal Corso v.6.3
     Shape of augmentation charge: PSQ
     Using radial grid of 1121 points,  4 beta functions with: 
                l(1) =   0
                l(2) =   0
                l(3) =   1
                l(4) =   1
     Q(r) pseudized with 0 coefficients 


     PseudoPot. # 2 for Cl read from file:
     ./Cl.pbe-n-kjpaw_psl.1.0.0.UPF
     MD5 check sum: 530da96d25dcb7781b0586ca00827062
     Pseudo is Projector augmented-wave + core cor, Zval =  7.0
     Generated using "atomic" code by A. Dal Corso v.6.3
     Shape of augmentation charge: PSQ
     Using radial grid of 1157 points,  6 beta functions with: 
                l(1) =   0
                l(2) =   0
                l(3) =   1
                l(4) =   1
                l(5) =   2
                l(6) =   2
     Q(r) pseudized with 0 coefficients 


     atomic species   valence    mass     pseudopotential
        Na             9.00    22.98900     Na( 1.00)
        Cl             7.00    35.45150     Cl( 1.00)

     48 Sym. Ops., with inversion, found



   Cartesian axes

     site n.     atom                  positions (alat units)
         1           Cl  tau(   1) = (   0.5000000   0.5000000   0.5000000  )
         2           Na  tau(   2) = (   0.0000000   0.0000000   0.0000000  )

     number of k points=    20  Marzari-Vanderbilt smearing, width (Ry)=  0.0050
                       cart. coord. in units 2pi/alat
        k(    1) = (   0.0000000   0.0000000   0.0000000), wk =   0.0058309
        k(    2) = (  -0.1428571   0.1428571   0.1428571), wk =   0.0466472
        k(    3) = (  -0.2857143   0.2857143   0.2857143), wk =   0.0466472
        k(    4) = (  -0.4285714   0.4285714   0.4285714), wk =   0.0466472
        k(    5) = (   0.0000000   0.0000000   0.2857143), wk =   0.0349854
        k(    6) = (  -0.1428571   0.1428571   0.4285714), wk =   0.1399417
        k(    7) = (  -0.2857143   0.2857143   0.5714286), wk =   0.1399417
        k(    8) = (   0.5714286  -0.5714286  -0.2857143), wk =   0.1399417
        k(    9) = (   0.4285714  -0.4285714  -0.1428571), wk =   0.1399417
        k(   10) = (   0.2857143  -0.2857143  -0.0000000), wk =   0.0699708
        k(   11) = (   0.0000000   0.0000000   0.5714286), wk =   0.0349854
        k(   12) = (  -0.1428571   0.1428571   0.7142857), wk =   0.1399417
        k(   13) = (   0.7142857  -0.7142857  -0.1428571), wk =   0.1399417
        k(   14) = (   0.5714286  -0.5714286   0.0000000), wk =   0.0699708
        k(   15) = (   0.0000000   0.0000000   0.8571429), wk =   0.0349854
        k(   16) = (   0.8571429  -0.8571429  -0.0000000), wk =   0.0699708
        k(   17) = (   0.0000000   0.2857143   0.5714286), wk =   0.1399417
        k(   18) = (   0.8571429  -0.5714286  -0.2857143), wk =   0.2798834
        k(   19) = (   1.0000000  -0.7142857  -0.1428571), wk =   0.1399417
        k(   20) = (   0.8571429  -0.5714286   0.0000000), wk =   0.1399417

     Dense  grid:    81043 G-vectors     FFT dimensions: (  64,  64,  64)

     Smooth grid:    35053 G-vectors     FFT dimensions: (  45,  45,  45)

     Estimated max dynamical RAM per process >     327.72 MB

     Initial potential from superposition of free atoms

     starting charge   15.99370, renormalised to   16.00000
     Starting wfcs are    9 randomized atomic wfcs +    3 random wfcs
     Checking if some PAW data can be deallocated... 

     total cpu time spent up to now is       12.5 secs

     Self-consistent Calculation

     iteration #  1     ecut=    90.00 Ry     beta= 0.70
     Davidson diagonalization with overlap
     ethr =  1.00E-02,  avg # of iterations =  6.0

     Threshold (ethr) on eigenvalues was too large:
     Diagonalizing with lowered threshold

     Davidson diagonalization with overlap
     ethr =  3.44E-04,  avg # of iterations =  1.2

     total cpu time spent up to now is       32.5 secs

     total energy              =    -188.83191508 Ry
     Harris-Foulkes estimate   =    -188.86409568 Ry
     estimated scf accuracy    <       0.05206070 Ry

     iteration #  2     ecut=    90.00 Ry     beta= 0.70
     Davidson diagonalization with overlap
     ethr =  3.25E-04,  avg # of iterations =  2.0

     total cpu time spent up to now is       43.1 secs

     total energy              =    -188.84683119 Ry
     Harris-Foulkes estimate   =    -188.85413896 Ry
     estimated scf accuracy    <       0.01349586 Ry

     iteration #  3     ecut=    90.00 Ry     beta= 0.70
     Davidson diagonalization with overlap
     ethr =  8.43E-05,  avg # of iterations =  2.0

     total cpu time spent up to now is       53.2 secs

     total energy              =    -188.84985221 Ry
     Harris-Foulkes estimate   =    -188.84972369 Ry
     estimated scf accuracy    <       0.00026185 Ry

     iteration #  4     ecut=    90.00 Ry     beta= 0.70
     Davidson diagonalization with overlap
     ethr =  1.64E-06,  avg # of iterations =  4.2

     total cpu time spent up to now is       66.0 secs

     total energy              =    -188.84991032 Ry
     Harris-Foulkes estimate   =    -188.84990870 Ry
     estimated scf accuracy    <       0.00000175 Ry

     iteration #  5     ecut=    90.00 Ry     beta= 0.70
     Davidson diagonalization with overlap
     ethr =  1.10E-08,  avg # of iterations =  3.0

     total cpu time spent up to now is       77.7 secs

     total energy              =    -188.84991167 Ry
     Harris-Foulkes estimate   =    -188.84991149 Ry
     estimated scf accuracy    <       0.00000010 Ry

     iteration #  6     ecut=    90.00 Ry     beta= 0.70
     Davidson diagonalization with overlap
     ethr =  6.32E-10,  avg # of iterations =  2.7

     total cpu time spent up to now is       88.0 secs

     End of self-consistent calculation

          k = 0.0000 0.0000 0.0000 (  4381 PWs)   bands (ev):

   -47.9563 -19.8693 -19.8693 -19.8693 -11.6946   0.9618   0.9618   0.9618
     6.0647  12.0012  12.0012  12.0012

          k =-0.1429 0.1429 0.1429 (  4390 PWs)   bands (ev):

   -47.9562 -19.8748 -19.8697 -19.8697 -11.6346   0.4980   0.9098   0.9098
     6.6923  11.3760  12.2321  12.2321

          k =-0.2857 0.2857 0.2857 (  4357 PWs)   bands (ev):

   -47.9558 -19.8871 -19.8706 -19.8706 -11.4952  -0.3317   0.7973   0.7973
     7.7743  10.9255  12.2067  12.2067

          k =-0.4286 0.4286 0.4286 (  4383 PWs)   bands (ev):

   -47.9556 -19.8969 -19.8713 -19.8713 -11.3782  -0.8839   0.7112   0.7112
     8.2019  11.4328  11.9095  11.9095

          k = 0.0000 0.0000 0.2857 (  4384 PWs)   bands (ev):

   -47.9561 -19.8744 -19.8708 -19.8708 -11.6166   0.4756   0.8379   0.8379
     6.8970  11.0287  12.4688  12.4688

          k =-0.1429 0.1429 0.4286 (  4372 PWs)   bands (ev):

   -47.9558 -19.8831 -19.8722 -19.8717 -11.5081  -0.1200   0.7117   0.7161
     7.8759  10.4863  11.8993  12.7252

          k =-0.2857 0.2857 0.5714 (  4374 PWs)   bands (ev):

   -47.9556 -19.8926 -19.8732 -19.8727 -11.3867  -0.6723   0.5372   0.6368
     8.6004  10.7803  11.3427  12.4266

          k = 0.5714-0.5714-0.2857 (  4354 PWs)   bands (ev):

   -47.9555 -19.8956 -19.8746 -19.8721 -11.3469  -0.8268   0.4282   0.6539
     8.7372  10.9899  11.4946  12.2273

          k = 0.4286-0.4286-0.1429 (  4357 PWs)   bands (ev):

   -47.9556 -19.8900 -19.8746 -19.8707 -11.4217  -0.5147   0.4751   0.7562
     8.5027  10.7714  11.4893  12.3968

          k = 0.2857-0.2857-0.0000 (  4369 PWs)   bands (ev):

   -47.9560 -19.8807 -19.8725 -19.8697 -11.5499   0.0604   0.6877   0.8718
     7.5084  10.8394  12.1315  12.6857

          k = 0.0000 0.0000 0.5714 (  4364 PWs)   bands (ev):

   -47.9557 -19.8836 -19.8742 -19.8742 -11.4512  -0.2611   0.5812   0.5812
     8.3389   9.7829  11.5373  13.6928

          k =-0.1429 0.1429 0.7143 (  4368 PWs)   bands (ev):

   -47.9555 -19.8880 -19.8766 -19.8752 -11.3653  -0.5237   0.3479   0.4945
     8.8714   9.6763  11.2661  13.6897

          k = 0.7143-0.7143-0.1429 (  4360 PWs)   bands (ev):

   -47.9553 -19.8894 -19.8807 -19.8744 -11.3157  -0.5393  -0.0191   0.5144
     9.2906  10.1941  11.2205  13.2190

          k = 0.5714-0.5714 0.0000 (  4367 PWs)   bands (ev):

   -47.9554 -19.8895 -19.8806 -19.8724 -11.3414  -0.4928  -0.0171   0.6280
     9.5359  10.5187  10.7849  12.8472

          k = 0.0000 0.0000 0.8571 (  4336 PWs)   bands (ev):

   -47.9553 -19.8887 -19.8770 -19.8770 -11.3298  -0.6486   0.3936   0.3936
     8.5423   9.1006  12.0166  15.2872

          k = 0.8571-0.8571-0.0000 (  4346 PWs)   bands (ev):

   -47.9553 -19.8881 -19.8800 -19.8766 -11.3077  -0.6083   0.1572   0.4020
     8.7727   9.3639  11.9786  14.4715

          k = 0.0000 0.2857 0.5714 (  4383 PWs)   bands (ev):

   -47.9556 -19.8873 -19.8762 -19.8724 -11.4123  -0.4066   0.3806   0.6424
     8.8173  10.1771  11.1190  13.1306

          k = 0.8571-0.5714-0.2857 (  4374 PWs)   bands (ev):

   -47.9554 -19.8907 -19.8785 -19.8740 -11.3334  -0.5863   0.1362   0.5243
     9.4659  10.3729  10.8443  12.8399

          k = 1.0000-0.7143-0.1429 (  4338 PWs)   bands (ev):

   -47.9553 -19.8876 -19.8791 -19.8774 -11.3158  -0.5303   0.1589   0.3302
     9.2009   9.6947  11.3245  13.5014

          k = 0.8571-0.5714 0.0000 (  4364 PWs)   bands (ev):

   -47.9553 -19.8848 -19.8841 -19.8768 -11.3016  -0.2960  -0.2323   0.3480
     9.7002  10.2183  10.9860  12.6713

     the Fermi energy is     3.5141 ev

!    total energy              =    -188.84991171 Ry
     Harris-Foulkes estimate   =    -188.84991171 Ry
     estimated scf accuracy    <          2.2E-09 Ry

     total all-electron energy =     -1248.136927 Ry

     The total energy is the sum of the following terms:

     one-electron contribution =     -80.91604997 Ry
     hartree contribution      =      47.14324467 Ry
     xc contribution           =     -25.67414815 Ry
     ewald contribution        =     -68.79919271 Ry
     one-center paw contrib.   =     -60.60376556 Ry
     smearing contrib. (-TS)   =       0.00000000 Ry

     convergence has been achieved in   6 iterations

     Forces acting on atoms (cartesian axes, Ry/au):

     atom    1 type  2   force =    -0.00000000    0.00000000    0.00000000
     atom    2 type  1   force =     0.00000000   -0.00000000    0.00000000

     Total force =     0.000000     Total SCF correction =     0.000000


     Computing stress (Cartesian axis) and pressure

          total   stress  (Ry/bohr**3)                   (kbar)     P=    7.48
   0.00005087  -0.00000000  -0.00000000          7.48     -0.00     -0.00
  -0.00000000   0.00005087   0.00000000         -0.00      7.48      0.00
   0.00000000   0.00000000   0.00005087          0.00      0.00      7.48


     Writing output data file halite.save/

     init_run     :      7.76s CPU      8.01s WALL (       1 calls)
     electrons    :     73.38s CPU     75.54s WALL (       1 calls)
     forces       :      2.23s CPU      2.39s WALL (       1 calls)
     stress       :      5.08s CPU      5.53s WALL (       1 calls)

     Called by init_run:
     wfcinit      :      2.47s CPU      2.48s WALL (       1 calls)
     potinit      :      0.94s CPU      0.98s WALL (       1 calls)
     hinit0       :      3.48s CPU      3.54s WALL (       1 calls)

     Called by electrons:
     c_bands      :     49.66s CPU     49.89s WALL (       7 calls)
     sum_band     :     14.18s CPU     15.22s WALL (       7 calls)
     v_of_rho     :      1.70s CPU      1.75s WALL (       7 calls)
     newd         :      4.94s CPU      5.92s WALL (       7 calls)
     PAW_pot      :      4.20s CPU      4.22s WALL (       7 calls)
     mix_rho      :      0.11s CPU      0.12s WALL (       7 calls)

     Called by c_bands:
     init_us_2    :      0.93s CPU      0.94s WALL (     340 calls)
     cegterg      :     48.36s CPU     48.58s WALL (     140 calls)

     Called by sum_band:
     sum_band:bec :      0.01s CPU      0.01s WALL (     140 calls)
     addusdens    :      6.13s CPU      7.11s WALL (       7 calls)

     Called by *egterg:
     h_psi        :     39.29s CPU     39.49s WALL (     585 calls)
     s_psi        :      2.62s CPU      2.63s WALL (     585 calls)
     g_psi        :      0.09s CPU      0.10s WALL (     425 calls)
     cdiaghg      :      0.40s CPU      0.41s WALL (     545 calls)

     Called by h_psi:
     h_psi:pot    :     39.22s CPU     39.42s WALL (     585 calls)
     h_psi:calbec :      2.87s CPU      2.89s WALL (     585 calls)
     vloc_psi     :     33.73s CPU     33.90s WALL (     585 calls)
     add_vuspsi   :      2.61s CPU      2.62s WALL (     585 calls)

     General routines
     calbec       :      4.59s CPU      4.62s WALL (     825 calls)
     fft          :      0.58s CPU      0.59s WALL (     115 calls)
     ffts         :      0.08s CPU      0.08s WALL (      14 calls)
     fftw         :     35.47s CPU     35.66s WALL (   11020 calls)
     interpolate  :      0.10s CPU      0.10s WALL (       7 calls)

     Parallel routines

     PWSCF        :   1m32.94s CPU   1m36.06s WALL


   This run was terminated on:   9:35:35  18Feb2020            

=------------------------------------------------------------------------------=
   JOB DONE.
=------------------------------------------------------------------------------=
