     Message from routine get_command_line:
     unexpected argument # 2     :-input

     Program PWSCF v.6.4.1 starts on 18Feb2020 at  8: 4:28 

     This program is part of the open-source Quantum ESPRESSO suite
     for quantum simulation of materials; please cite
         "P. Giannozzi et al., J. Phys.:Condens. Matter 21 395502 (2009);
         "P. Giannozzi et al., J. Phys.:Condens. Matter 29 465901 (2017);
          URL http://www.quantum-espresso.org", 
     in publications or presentations arising from this work. More details at
     http://www.quantum-espresso.org/quote

     Parallel version (MPI), running on     1 processors

     MPI processes distributed on     1 nodes
     Waiting for input...
     Reading input from standard input

     Current dimensions of program PWSCF are:
     Max number of different atomic species (ntypx) = 10
     Max number of k-points (npk) =  40000
     Max angular momentum in pseudopotentials (lmaxx) =  3
     Message from routine volume:
     axis vectors are left-handed

     IMPORTANT: XC functional enforced from input :
     Exchange-correlation      = PBE ( 1  4  3  4 0 0)
     Any further DFT definition will be discarded
     Please, verify this is what you really want

               file Na.pbe-spn-kjpaw_psl.1.0.0.UPF: wavefunction(s)  2P renormalized
               file Cl.pbe-n-kjpaw_psl.1.0.0.UPF: wavefunction(s)  3S 3P renormalized

     Subspace diagonalization in iterative solution of the eigenvalue problem:
     a serial algorithm will be used

     Message from routine setup:
     DEPRECATED: symmetry with ibrav=0, use correct ibrav instead

     G-vector sticks info
     --------------------
     sticks:   dense  smooth     PW     G-vecs:    dense   smooth      PW
     Sum         703     559    169                12339     8801    1471



     bravais-lattice index     =            0
     lattice parameter (alat)  =      10.6591  a.u.
     unit-cell volume          =     302.7633 (a.u.)^3
     number of atoms/cell      =            2
     number of atomic types    =            2
     number of electrons       =        16.00
     number of Kohn-Sham states=           12
     kinetic-energy cutoff     =      36.0000  Ry
     charge density cutoff     =     180.0000  Ry
     convergence threshold     =      1.0E-08
     mixing beta               =       0.7000
     number of iterations used =            8  plain     mixing
     Exchange-correlation      = PBE ( 1  4  3  4 0 0)

     celldm(1)=  10.659114  celldm(2)=   0.000000  celldm(3)=   0.000000
     celldm(4)=   0.000000  celldm(5)=   0.000000  celldm(6)=   0.000000

     crystal axes: (cart. coord. in units of alat)
               a(1) = (   0.500000   0.500000   0.000000 )  
               a(2) = (   0.500000   0.000000   0.500000 )  
               a(3) = (   0.000000   0.500000   0.500000 )  

     reciprocal axes: (cart. coord. in units 2 pi/alat)
               b(1) = (  1.000000  1.000000 -1.000000 )  
               b(2) = (  1.000000 -1.000000  1.000000 )  
               b(3) = ( -1.000000  1.000000  1.000000 )  


     PseudoPot. # 1 for Na read from file:
     ./Na.pbe-spn-kjpaw_psl.1.0.0.UPF
     MD5 check sum: 05b4deb74e3932c23ab016979dc8b5d4
     Pseudo is Projector augmented-wave + core cor, Zval =  9.0
     Generated using "atomic" code by A. Dal Corso v.6.3
     Shape of augmentation charge: PSQ
     Using radial grid of 1121 points,  4 beta functions with: 
                l(1) =   0
                l(2) =   0
                l(3) =   1
                l(4) =   1
     Q(r) pseudized with 0 coefficients 


     PseudoPot. # 2 for Cl read from file:
     ./Cl.pbe-n-kjpaw_psl.1.0.0.UPF
     MD5 check sum: 530da96d25dcb7781b0586ca00827062
     Pseudo is Projector augmented-wave + core cor, Zval =  7.0
     Generated using "atomic" code by A. Dal Corso v.6.3
     Shape of augmentation charge: PSQ
     Using radial grid of 1157 points,  6 beta functions with: 
                l(1) =   0
                l(2) =   0
                l(3) =   1
                l(4) =   1
                l(5) =   2
                l(6) =   2
     Q(r) pseudized with 0 coefficients 


     atomic species   valence    mass     pseudopotential
        Na             9.00    22.98900     Na( 1.00)
        Cl             7.00    35.45150     Cl( 1.00)

     48 Sym. Ops., with inversion, found



   Cartesian axes

     site n.     atom                  positions (alat units)
         1           Cl  tau(   1) = (   0.5000000   0.5000000   0.5000000  )
         2           Na  tau(   2) = (   0.0000000   0.0000000   0.0000000  )

     number of k points=    20  Marzari-Vanderbilt smearing, width (Ry)=  0.0050
                       cart. coord. in units 2pi/alat
        k(    1) = (   0.0000000   0.0000000   0.0000000), wk =   0.0058309
        k(    2) = (  -0.1428571   0.1428571   0.1428571), wk =   0.0466472
        k(    3) = (  -0.2857143   0.2857143   0.2857143), wk =   0.0466472
        k(    4) = (  -0.4285714   0.4285714   0.4285714), wk =   0.0466472
        k(    5) = (   0.0000000   0.0000000   0.2857143), wk =   0.0349854
        k(    6) = (  -0.1428571   0.1428571   0.4285714), wk =   0.1399417
        k(    7) = (  -0.2857143   0.2857143   0.5714286), wk =   0.1399417
        k(    8) = (   0.5714286  -0.5714286  -0.2857143), wk =   0.1399417
        k(    9) = (   0.4285714  -0.4285714  -0.1428571), wk =   0.1399417
        k(   10) = (   0.2857143  -0.2857143  -0.0000000), wk =   0.0699708
        k(   11) = (   0.0000000   0.0000000   0.5714286), wk =   0.0349854
        k(   12) = (  -0.1428571   0.1428571   0.7142857), wk =   0.1399417
        k(   13) = (   0.7142857  -0.7142857  -0.1428571), wk =   0.1399417
        k(   14) = (   0.5714286  -0.5714286   0.0000000), wk =   0.0699708
        k(   15) = (   0.0000000   0.0000000   0.8571429), wk =   0.0349854
        k(   16) = (   0.8571429  -0.8571429  -0.0000000), wk =   0.0699708
        k(   17) = (   0.0000000   0.2857143   0.5714286), wk =   0.1399417
        k(   18) = (   0.8571429  -0.5714286  -0.2857143), wk =   0.2798834
        k(   19) = (   1.0000000  -0.7142857  -0.1428571), wk =   0.1399417
        k(   20) = (   0.8571429  -0.5714286   0.0000000), wk =   0.1399417

     Dense  grid:    12339 G-vectors     FFT dimensions: (  36,  36,  36)

     Smooth grid:     8801 G-vectors     FFT dimensions: (  30,  30,  30)

     Estimated max dynamical RAM per process >      54.86 MB

     Check: negative core charge=   -0.000019

     Initial potential from superposition of free atoms

     starting charge   15.99370, renormalised to   16.00000
     Starting wfcs are    9 randomized atomic wfcs +    3 random wfcs
     Checking if some PAW data can be deallocated... 

     total cpu time spent up to now is        7.9 secs

     Self-consistent Calculation

     iteration #  1     ecut=    36.00 Ry     beta= 0.70
     Davidson diagonalization with overlap
     ethr =  1.00E-02,  avg # of iterations =  6.2

     Threshold (ethr) on eigenvalues was too large:
     Diagonalizing with lowered threshold

     Davidson diagonalization with overlap
     ethr =  3.50E-04,  avg # of iterations =  1.1

     total cpu time spent up to now is       14.6 secs

     total energy              =    -188.72909332 Ry
     Harris-Foulkes estimate   =    -188.76252940 Ry
     estimated scf accuracy    <       0.05464287 Ry

     iteration #  2     ecut=    36.00 Ry     beta= 0.70
     Davidson diagonalization with overlap
     ethr =  3.42E-04,  avg # of iterations =  2.2

     total cpu time spent up to now is       18.1 secs

     total energy              =    -188.74334381 Ry
     Harris-Foulkes estimate   =    -188.75040084 Ry
     estimated scf accuracy    <       0.01295072 Ry

     iteration #  3     ecut=    36.00 Ry     beta= 0.70
     Davidson diagonalization with overlap
     ethr =  8.09E-05,  avg # of iterations =  2.0

     total cpu time spent up to now is       21.4 secs

     total energy              =    -188.74627423 Ry
     Harris-Foulkes estimate   =    -188.74616235 Ry
     estimated scf accuracy    <       0.00029420 Ry

     iteration #  4     ecut=    36.00 Ry     beta= 0.70
     Davidson diagonalization with overlap
     ethr =  1.84E-06,  avg # of iterations =  3.9

     total cpu time spent up to now is       25.3 secs

     total energy              =    -188.74631890 Ry
     Harris-Foulkes estimate   =    -188.74631696 Ry
     estimated scf accuracy    <       0.00000175 Ry

     iteration #  5     ecut=    36.00 Ry     beta= 0.70
     Davidson diagonalization with overlap
     ethr =  1.09E-08,  avg # of iterations =  2.0

     total cpu time spent up to now is       28.9 secs

     total energy              =    -188.74631985 Ry
     Harris-Foulkes estimate   =    -188.74631967 Ry
     estimated scf accuracy    <       0.00000028 Ry

     iteration #  6     ecut=    36.00 Ry     beta= 0.70
     Davidson diagonalization with overlap
     ethr =  1.75E-09,  avg # of iterations =  2.0

     total cpu time spent up to now is       32.5 secs

     End of self-consistent calculation

          k = 0.0000 0.0000 0.0000 (  1067 PWs)   bands (ev):

   -48.3668 -19.8648 -19.8648 -19.8648 -11.6567   1.0043   1.0043   1.0043
     6.1266  12.0237  12.0237  12.0238

          k =-0.1429 0.1429 0.1429 (  1104 PWs)   bands (ev):

   -48.3678 -19.9290 -19.9040 -19.9040 -11.5960   0.5380   0.9502   0.9502
     6.7586  11.4131  12.2651  12.2651

          k =-0.2857 0.2857 0.2857 (  1095 PWs)   bands (ev):

   -48.3675 -19.9233 -19.9051 -19.9051 -11.4548  -0.2936   0.8345   0.8345
     7.8634  10.9790  12.3144  12.3144

          k =-0.4286 0.4286 0.4286 (  1113 PWs)   bands (ev):

   -48.3679 -19.9693 -19.9206 -19.9206 -11.3370  -0.8472   0.7460   0.7460
     8.3054  11.4979  12.0571  12.0571

          k = 0.0000 0.0000 0.2857 (  1110 PWs)   bands (ev):

   -48.3680 -19.9381 -19.9114 -19.9114 -11.5780   0.5122   0.8808   0.8808
     6.9607  11.0530  12.5094  12.5094

          k =-0.1429 0.1429 0.4286 (  1105 PWs)   bands (ev):

   -48.3678 -19.9290 -19.9198 -19.9168 -11.4684  -0.0820   0.7521   0.7582
     7.9504  10.5219  12.0321  12.8104

          k =-0.2857 0.2857 0.5714 (  1105 PWs)   bands (ev):

   -48.3677 -19.9488 -19.9223 -19.9127 -11.3460  -0.6331   0.5760   0.6759
     8.6933  10.8426  11.4630  12.5641

          k = 0.5714-0.5714-0.2857 (  1110 PWs)   bands (ev):

   -48.3678 -19.9631 -19.9219 -19.9209 -11.3059  -0.7881   0.4686   0.6898
     8.8382  11.0938  11.5759  12.3846

          k = 0.4286-0.4286-0.1429 (  1104 PWs)   bands (ev):

   -48.3677 -19.9366 -19.9208 -19.9182 -11.3810  -0.4771   0.5185   0.7909
     8.5951  10.8268  11.6065  12.5453

          k = 0.2857-0.2857-0.0000 (  1107 PWs)   bands (ev):

   -48.3679 -19.9278 -19.9257 -19.9115 -11.5104   0.0976   0.7317   0.9083
     7.5835  10.8827  12.2218  12.7084

          k = 0.0000 0.0000 0.5714 (  1094 PWs)   bands (ev):

   -48.3674 -19.9183 -19.9088 -19.9088 -11.4118  -0.2201   0.6270   0.6270
     8.4042   9.8086  11.6967  13.7862

          k =-0.1429 0.1429 0.7143 (  1104 PWs)   bands (ev):

   -48.3675 -19.9308 -19.9267 -19.9237 -11.3259  -0.4770   0.3933   0.5394
     8.9474   9.7111  11.3925  13.8177

          k = 0.7143-0.7143-0.1429 (  1108 PWs)   bands (ev):

   -48.3676 -19.9545 -19.9260 -19.9238 -11.2759  -0.4925   0.0266   0.5556
     9.3777  10.2650  11.3006  13.3823

          k = 0.5714-0.5714 0.0000 (  1117 PWs)   bands (ev):

   -48.3680 -19.9516 -19.9421 -19.9388 -11.3010  -0.4548   0.0331   0.6646
     9.6356  10.6063  10.8505  13.0274

          k = 0.0000 0.0000 0.8571 (  1110 PWs)   bands (ev):

   -48.3676 -19.9628 -19.9221 -19.9221 -11.2914  -0.5951   0.4416   0.4416
     8.6184   9.1265  12.1296  15.4515

          k = 0.8571-0.8571-0.0000 (  1110 PWs)   bands (ev):

   -48.3676 -19.9675 -19.9223 -19.9207 -11.2691  -0.5537   0.2035   0.4484
     8.8524   9.3981  12.0749  14.6266

          k = 0.0000 0.2857 0.5714 (  1105 PWs)   bands (ev):

   -48.3677 -19.9378 -19.9219 -19.9197 -11.3723  -0.3673   0.4278   0.6810
     8.8968  10.2180  11.2515  13.2776

          k = 0.8571-0.5714-0.2857 (  1112 PWs)   bands (ev):

   -48.3678 -19.9626 -19.9289 -19.9224 -11.2933  -0.5439   0.1832   0.5626
     9.5535  10.4648  10.9127  13.0044

          k = 1.0000-0.7143-0.1429 (  1099 PWs)   bands (ev):

   -48.3673 -19.9483 -19.9131 -19.9100 -11.2767  -0.4785   0.2090   0.3713
     9.2876   9.7309  11.4227  13.6653

          k = 0.8571-0.5714 0.0000 (  1104 PWs)   bands (ev):

   -48.3674 -19.9443 -19.9415 -19.9048 -11.2621  -0.2434  -0.1864   0.3881
     9.7878  10.2779  11.0524  12.8449

     the Fermi energy is     3.5704 ev

!    total energy              =    -188.74631993 Ry
     Harris-Foulkes estimate   =    -188.74631994 Ry
     estimated scf accuracy    <          6.7E-09 Ry

     total all-electron energy =     -1248.033335 Ry

     The total energy is the sum of the following terms:

     one-electron contribution =     -80.64523082 Ry
     hartree contribution      =      46.99672664 Ry
     xc contribution           =     -25.65456498 Ry
     ewald contribution        =     -68.79919274 Ry
     one-center paw contrib.   =     -60.64405802 Ry
     smearing contrib. (-TS)   =       0.00000000 Ry

     convergence has been achieved in   6 iterations

     Forces acting on atoms (cartesian axes, Ry/au):

     atom    1 type  2   force =     0.00000000    0.00000000    0.00000000
     atom    2 type  1   force =     0.00000000    0.00000000    0.00000000

     Total force =     0.000000     Total SCF correction =     0.000000


     Computing stress (Cartesian axis) and pressure

          total   stress  (Ry/bohr**3)                   (kbar)     P= -268.16
  -0.00182289   0.00000000   0.00000000       -268.16      0.00      0.00
   0.00000000  -0.00182289   0.00000000          0.00   -268.16      0.00
   0.00000000   0.00000000  -0.00182289          0.00      0.00   -268.16


     Writing output data file halite.save/

     init_run     :      3.47s CPU      3.53s WALL (       1 calls)
     electrons    :     24.27s CPU     24.62s WALL (       1 calls)
     forces       :      0.42s CPU      0.47s WALL (       1 calls)
     stress       :      0.99s CPU      1.06s WALL (       1 calls)

     Called by init_run:
     wfcinit      :      0.82s CPU      0.83s WALL (       1 calls)
     potinit      :      0.67s CPU      0.68s WALL (       1 calls)
     hinit0       :      1.84s CPU      1.85s WALL (       1 calls)

     Called by electrons:
     c_bands      :     15.91s CPU     15.99s WALL (       7 calls)
     sum_band     :      3.63s CPU      3.77s WALL (       7 calls)
     v_of_rho     :      0.41s CPU      0.41s WALL (       7 calls)
     newd         :      0.77s CPU      0.90s WALL (       7 calls)
     PAW_pot      :      4.19s CPU      4.22s WALL (       7 calls)
     mix_rho      :      0.04s CPU      0.04s WALL (       7 calls)

     Called by c_bands:
     init_us_2    :      0.25s CPU      0.26s WALL (     340 calls)
     cegterg      :     15.56s CPU     15.65s WALL (     140 calls)

     Called by sum_band:
     sum_band:bec :      0.01s CPU      0.01s WALL (     140 calls)
     addusdens    :      0.98s CPU      1.11s WALL (       7 calls)

     Called by *egterg:
     h_psi        :     13.21s CPU     13.28s WALL (     549 calls)
     s_psi        :      0.68s CPU      0.69s WALL (     549 calls)
     g_psi        :      0.02s CPU      0.02s WALL (     389 calls)
     cdiaghg      :      0.36s CPU      0.36s WALL (     509 calls)

     Called by h_psi:
     h_psi:pot    :     13.19s CPU     13.26s WALL (     549 calls)
     h_psi:calbec :      0.77s CPU      0.77s WALL (     549 calls)
     vloc_psi     :     11.74s CPU     11.80s WALL (     549 calls)
     add_vuspsi   :      0.68s CPU      0.69s WALL (     549 calls)

     General routines
     calbec       :      1.21s CPU      1.22s WALL (     789 calls)
     fft          :      0.32s CPU      0.32s WALL (     115 calls)
     ffts         :      0.05s CPU      0.05s WALL (      14 calls)
     fftw         :     12.63s CPU     12.70s WALL (   10868 calls)
     interpolate  :      0.05s CPU      0.05s WALL (       7 calls)

     Parallel routines

     PWSCF        :     33.53s CPU     34.11s WALL


   This run was terminated on:   8: 5: 2  18Feb2020            

=------------------------------------------------------------------------------=
   JOB DONE.
=------------------------------------------------------------------------------=
