     Message from routine get_command_line:
     unexpected argument # 2     :-input

     Program PWSCF v.6.4.1 starts on 18Feb2020 at  6: 2:15 

     This program is part of the open-source Quantum ESPRESSO suite
     for quantum simulation of materials; please cite
         "P. Giannozzi et al., J. Phys.:Condens. Matter 21 395502 (2009);
         "P. Giannozzi et al., J. Phys.:Condens. Matter 29 465901 (2017);
          URL http://www.quantum-espresso.org", 
     in publications or presentations arising from this work. More details at
     http://www.quantum-espresso.org/quote

     Parallel version (MPI), running on     1 processors

     MPI processes distributed on     1 nodes
     Waiting for input...
     Reading input from standard input

     Current dimensions of program PWSCF are:
     Max number of different atomic species (ntypx) = 10
     Max number of k-points (npk) =  40000
     Max angular momentum in pseudopotentials (lmaxx) =  3
     Message from routine volume:
     axis vectors are left-handed

     IMPORTANT: XC functional enforced from input :
     Exchange-correlation      = PBE ( 1  4  3  4 0 0)
     Any further DFT definition will be discarded
     Please, verify this is what you really want

               file Na.pbe-spn-kjpaw_psl.1.0.0.UPF: wavefunction(s)  2P renormalized
               file Cl.pbe-n-kjpaw_psl.1.0.0.UPF: wavefunction(s)  3S 3P renormalized

     Subspace diagonalization in iterative solution of the eigenvalue problem:
     a serial algorithm will be used

     Message from routine setup:
     DEPRECATED: symmetry with ibrav=0, use correct ibrav instead

     G-vector sticks info
     --------------------
     sticks:   dense  smooth     PW     G-vecs:    dense   smooth      PW
     Sum        1261    1039    253                29627    22075    2733



     bravais-lattice index     =            0
     lattice parameter (alat)  =      10.6591  a.u.
     unit-cell volume          =     302.7633 (a.u.)^3
     number of atoms/cell      =            2
     number of atomic types    =            2
     number of electrons       =        16.00
     number of Kohn-Sham states=           12
     kinetic-energy cutoff     =      66.0000  Ry
     charge density cutoff     =     323.0000  Ry
     convergence threshold     =      1.0E-08
     mixing beta               =       0.7000
     number of iterations used =            8  plain     mixing
     Exchange-correlation      = PBE ( 1  4  3  4 0 0)

     celldm(1)=  10.659114  celldm(2)=   0.000000  celldm(3)=   0.000000
     celldm(4)=   0.000000  celldm(5)=   0.000000  celldm(6)=   0.000000

     crystal axes: (cart. coord. in units of alat)
               a(1) = (   0.500000   0.500000   0.000000 )  
               a(2) = (   0.500000   0.000000   0.500000 )  
               a(3) = (   0.000000   0.500000   0.500000 )  

     reciprocal axes: (cart. coord. in units 2 pi/alat)
               b(1) = (  1.000000  1.000000 -1.000000 )  
               b(2) = (  1.000000 -1.000000  1.000000 )  
               b(3) = ( -1.000000  1.000000  1.000000 )  


     PseudoPot. # 1 for Na read from file:
     ./Na.pbe-spn-kjpaw_psl.1.0.0.UPF
     MD5 check sum: 05b4deb74e3932c23ab016979dc8b5d4
     Pseudo is Projector augmented-wave + core cor, Zval =  9.0
     Generated using "atomic" code by A. Dal Corso v.6.3
     Shape of augmentation charge: PSQ
     Using radial grid of 1121 points,  4 beta functions with: 
                l(1) =   0
                l(2) =   0
                l(3) =   1
                l(4) =   1
     Q(r) pseudized with 0 coefficients 


     PseudoPot. # 2 for Cl read from file:
     ./Cl.pbe-n-kjpaw_psl.1.0.0.UPF
     MD5 check sum: 530da96d25dcb7781b0586ca00827062
     Pseudo is Projector augmented-wave + core cor, Zval =  7.0
     Generated using "atomic" code by A. Dal Corso v.6.3
     Shape of augmentation charge: PSQ
     Using radial grid of 1157 points,  6 beta functions with: 
                l(1) =   0
                l(2) =   0
                l(3) =   1
                l(4) =   1
                l(5) =   2
                l(6) =   2
     Q(r) pseudized with 0 coefficients 


     atomic species   valence    mass     pseudopotential
        Na             9.00    22.98900     Na( 1.00)
        Cl             7.00    35.45150     Cl( 1.00)

     48 Sym. Ops., with inversion, found



   Cartesian axes

     site n.     atom                  positions (alat units)
         1           Cl  tau(   1) = (   0.5000000   0.5000000   0.5000000  )
         2           Na  tau(   2) = (   0.0000000   0.0000000   0.0000000  )

     number of k points=     1  Marzari-Vanderbilt smearing, width (Ry)=  0.0050
                       cart. coord. in units 2pi/alat
        k(    1) = (   0.0000000   0.0000000   0.0000000), wk =   2.0000000

     Dense  grid:    29627 G-vectors     FFT dimensions: (  45,  45,  45)

     Smooth grid:    22075 G-vectors     FFT dimensions: (  40,  40,  40)

     Estimated max dynamical RAM per process >     116.77 MB

     Check: negative core charge=   -0.000001

     Initial potential from superposition of free atoms

     starting charge   15.99370, renormalised to   16.00000
     Starting wfcs are    9 randomized atomic wfcs +    3 random wfcs
     Checking if some PAW data can be deallocated... 

     total cpu time spent up to now is        8.3 secs

     Self-consistent Calculation

     iteration #  1     ecut=    66.00 Ry     beta= 0.70
     Davidson diagonalization with overlap
     ethr =  1.00E-02,  avg # of iterations = 10.0

     total cpu time spent up to now is       10.1 secs

     total energy              =    -188.44228031 Ry
     Harris-Foulkes estimate   =    -188.58245841 Ry
     estimated scf accuracy    <       0.22327913 Ry

     iteration #  2     ecut=    66.00 Ry     beta= 0.70
     Davidson diagonalization with overlap
     ethr =  1.40E-03,  avg # of iterations =  2.0

     total cpu time spent up to now is       11.7 secs

     total energy              =    -188.50206574 Ry
     Harris-Foulkes estimate   =    -188.51443922 Ry
     estimated scf accuracy    <       0.02744945 Ry

     iteration #  3     ecut=    66.00 Ry     beta= 0.70
     Davidson diagonalization with overlap
     ethr =  1.72E-04,  avg # of iterations =  2.0

     total cpu time spent up to now is       13.4 secs

     total energy              =    -188.50638220 Ry
     Harris-Foulkes estimate   =    -188.50674570 Ry
     estimated scf accuracy    <       0.00091831 Ry

     iteration #  4     ecut=    66.00 Ry     beta= 0.70
     Davidson diagonalization with overlap
     ethr =  5.74E-06,  avg # of iterations =  3.0

     total cpu time spent up to now is       15.1 secs

     total energy              =    -188.50647534 Ry
     Harris-Foulkes estimate   =    -188.50647891 Ry
     estimated scf accuracy    <       0.00000554 Ry

     iteration #  5     ecut=    66.00 Ry     beta= 0.70
     Davidson diagonalization with overlap
     ethr =  3.46E-08,  avg # of iterations =  3.0

     total cpu time spent up to now is       16.9 secs

     total energy              =    -188.50647899 Ry
     Harris-Foulkes estimate   =    -188.50647904 Ry
     estimated scf accuracy    <       0.00000069 Ry

     iteration #  6     ecut=    66.00 Ry     beta= 0.70
     Davidson diagonalization with overlap
     ethr =  4.32E-09,  avg # of iterations =  2.0

     total cpu time spent up to now is       18.5 secs

     total energy              =    -188.50647901 Ry
     Harris-Foulkes estimate   =    -188.50647911 Ry
     estimated scf accuracy    <       0.00000010 Ry

     iteration #  7     ecut=    66.00 Ry     beta= 0.70
     Davidson diagonalization with overlap
     ethr =  6.42E-10,  avg # of iterations =  1.0

     total cpu time spent up to now is       20.1 secs

     End of self-consistent calculation

          k = 0.0000 0.0000 0.0000 (  2733 PWs)   bands (ev):

   -48.4703 -20.3717 -20.3717 -20.3717 -10.1303   2.3658   2.3658   2.3658
     6.5389  12.5392  12.5392  12.5392

     the Fermi energy is     5.0151 ev

!    total energy              =    -188.50647902 Ry
     Harris-Foulkes estimate   =    -188.50647902 Ry
     estimated scf accuracy    <          3.2E-09 Ry

     total all-electron energy =     -1247.793494 Ry

     The total energy is the sum of the following terms:

     one-electron contribution =     -80.87709798 Ry
     hartree contribution      =      47.73269959 Ry
     xc contribution           =     -25.95212259 Ry
     ewald contribution        =     -68.79919271 Ry
     one-center paw contrib.   =     -60.61076533 Ry
     smearing contrib. (-TS)   =       0.00000000 Ry

     convergence has been achieved in   7 iterations

     Forces acting on atoms (cartesian axes, Ry/au):

     atom    1 type  2   force =     0.00000000   -0.00000000   -0.00000000
     atom    2 type  1   force =     0.00000000    0.00000000    0.00000000

     Total force =     0.000000     Total SCF correction =     0.000000


     Computing stress (Cartesian axis) and pressure

          total   stress  (Ry/bohr**3)                   (kbar)     P=  243.81
   0.00165737   0.00000000  -0.00000000        243.81      0.00     -0.00
   0.00000000   0.00165737   0.00000000          0.00    243.81      0.00
  -0.00000000   0.00000000   0.00165737         -0.00      0.00    243.81


     Writing output data file halite.save/

     init_run     :      3.74s CPU      3.84s WALL (       1 calls)
     electrons    :     11.27s CPU     11.80s WALL (       1 calls)
     forces       :      0.62s CPU      0.68s WALL (       1 calls)
     stress       :      1.40s CPU      1.51s WALL (       1 calls)

     Called by init_run:
     wfcinit      :      0.08s CPU      0.08s WALL (       1 calls)
     potinit      :      0.74s CPU      0.76s WALL (       1 calls)
     hinit0       :      2.60s CPU      2.62s WALL (       1 calls)

     Called by electrons:
     c_bands      :      1.53s CPU      1.54s WALL (       7 calls)
     sum_band     :      2.76s CPU      2.99s WALL (       7 calls)
     v_of_rho     :      0.86s CPU      0.87s WALL (       8 calls)
     newd         :      2.09s CPU      2.41s WALL (       8 calls)
     PAW_pot      :      4.76s CPU      4.78s WALL (       8 calls)
     mix_rho      :      0.10s CPU      0.10s WALL (       7 calls)

     Called by c_bands:
     init_us_2    :      0.03s CPU      0.03s WALL (      15 calls)
     cegterg      :      1.49s CPU      1.50s WALL (       7 calls)

     Called by sum_band:
     sum_band:bec :      0.00s CPU      0.00s WALL (       7 calls)
     addusdens    :      2.32s CPU      2.55s WALL (       7 calls)

     Called by *egterg:
     h_psi        :      1.21s CPU      1.21s WALL (      31 calls)
     s_psi        :      0.08s CPU      0.08s WALL (      31 calls)
     g_psi        :      0.00s CPU      0.00s WALL (      23 calls)
     cdiaghg      :      0.02s CPU      0.02s WALL (      30 calls)

     Called by h_psi:
     h_psi:pot    :      1.20s CPU      1.21s WALL (      31 calls)
     h_psi:calbec :      0.09s CPU      0.09s WALL (      31 calls)
     vloc_psi     :      1.03s CPU      1.03s WALL (      31 calls)
     add_vuspsi   :      0.08s CPU      0.08s WALL (      31 calls)

     General routines
     calbec       :      0.14s CPU      0.14s WALL (      43 calls)
     fft          :      0.61s CPU      0.61s WALL (     127 calls)
     ffts         :      0.07s CPU      0.07s WALL (      15 calls)
     fftw         :      1.12s CPU      1.12s WALL (     546 calls)
     interpolate  :      0.10s CPU      0.10s WALL (       8 calls)

     Parallel routines

     PWSCF        :     21.46s CPU     22.31s WALL


   This run was terminated on:   6: 2:38  18Feb2020            

=------------------------------------------------------------------------------=
   JOB DONE.
=------------------------------------------------------------------------------=
