     Message from routine get_command_line:
     unexpected argument # 2     :-input

     Program PWSCF v.6.4.1 starts on 18Feb2020 at 18:25:24 

     This program is part of the open-source Quantum ESPRESSO suite
     for quantum simulation of materials; please cite
         "P. Giannozzi et al., J. Phys.:Condens. Matter 21 395502 (2009);
         "P. Giannozzi et al., J. Phys.:Condens. Matter 29 465901 (2017);
          URL http://www.quantum-espresso.org", 
     in publications or presentations arising from this work. More details at
     http://www.quantum-espresso.org/quote

     Parallel version (MPI), running on     1 processors

     MPI processes distributed on     1 nodes
     Waiting for input...
     Reading input from standard input

     Current dimensions of program PWSCF are:
     Max number of different atomic species (ntypx) = 10
     Max number of k-points (npk) =  40000
     Max angular momentum in pseudopotentials (lmaxx) =  3
     Message from routine volume:
     axis vectors are left-handed

     IMPORTANT: XC functional enforced from input :
     Exchange-correlation      = PBE ( 1  4  3  4 0 0)
     Any further DFT definition will be discarded
     Please, verify this is what you really want

               file Na.pbe-spn-kjpaw_psl.1.0.0.UPF: wavefunction(s)  2P renormalized
               file Cl.pbe-n-kjpaw_psl.1.0.0.UPF: wavefunction(s)  3S 3P renormalized

     Subspace diagonalization in iterative solution of the eigenvalue problem:
     a serial algorithm will be used

     Message from routine setup:
     DEPRECATED: symmetry with ibrav=0, use correct ibrav instead

     G-vector sticks info
     --------------------
     sticks:   dense  smooth     PW     G-vecs:    dense   smooth      PW
     Sum         913     721    223                17933    12675    2133



     bravais-lattice index     =            0
     lattice parameter (alat)  =      10.6591  a.u.
     unit-cell volume          =     302.7633 (a.u.)^3
     number of atoms/cell      =            2
     number of atomic types    =            2
     number of electrons       =        16.00
     number of Kohn-Sham states=           12
     kinetic-energy cutoff     =      46.0000  Ry
     charge density cutoff     =     230.0000  Ry
     convergence threshold     =      1.0E-08
     mixing beta               =       0.7000
     number of iterations used =            8  plain     mixing
     Exchange-correlation      = PBE ( 1  4  3  4 0 0)

     celldm(1)=  10.659114  celldm(2)=   0.000000  celldm(3)=   0.000000
     celldm(4)=   0.000000  celldm(5)=   0.000000  celldm(6)=   0.000000

     crystal axes: (cart. coord. in units of alat)
               a(1) = (   0.500000   0.500000   0.000000 )  
               a(2) = (   0.500000   0.000000   0.500000 )  
               a(3) = (   0.000000   0.500000   0.500000 )  

     reciprocal axes: (cart. coord. in units 2 pi/alat)
               b(1) = (  1.000000  1.000000 -1.000000 )  
               b(2) = (  1.000000 -1.000000  1.000000 )  
               b(3) = ( -1.000000  1.000000  1.000000 )  


     PseudoPot. # 1 for Na read from file:
     ./Na.pbe-spn-kjpaw_psl.1.0.0.UPF
     MD5 check sum: 05b4deb74e3932c23ab016979dc8b5d4
     Pseudo is Projector augmented-wave + core cor, Zval =  9.0
     Generated using "atomic" code by A. Dal Corso v.6.3
     Shape of augmentation charge: PSQ
     Using radial grid of 1121 points,  4 beta functions with: 
                l(1) =   0
                l(2) =   0
                l(3) =   1
                l(4) =   1
     Q(r) pseudized with 0 coefficients 


     PseudoPot. # 2 for Cl read from file:
     ./Cl.pbe-n-kjpaw_psl.1.0.0.UPF
     MD5 check sum: 530da96d25dcb7781b0586ca00827062
     Pseudo is Projector augmented-wave + core cor, Zval =  7.0
     Generated using "atomic" code by A. Dal Corso v.6.3
     Shape of augmentation charge: PSQ
     Using radial grid of 1157 points,  6 beta functions with: 
                l(1) =   0
                l(2) =   0
                l(3) =   1
                l(4) =   1
                l(5) =   2
                l(6) =   2
     Q(r) pseudized with 0 coefficients 


     atomic species   valence    mass     pseudopotential
        Na             9.00    22.98900     Na( 1.00)
        Cl             7.00    35.45150     Cl( 1.00)

     48 Sym. Ops., with inversion, found



   Cartesian axes

     site n.     atom                  positions (alat units)
         1           Cl  tau(   1) = (   0.5000000   0.5000000   0.5000000  )
         2           Na  tau(   2) = (   0.0000000   0.0000000   0.0000000  )

     number of k points=    35  Marzari-Vanderbilt smearing, width (Ry)=  0.0050
                       cart. coord. in units 2pi/alat
        k(    1) = (   0.0000000   0.0000000   0.0000000), wk =   0.0027435
        k(    2) = (  -0.1111111   0.1111111   0.1111111), wk =   0.0219479
        k(    3) = (  -0.2222222   0.2222222   0.2222222), wk =   0.0219479
        k(    4) = (  -0.3333333   0.3333333   0.3333333), wk =   0.0219479
        k(    5) = (  -0.4444444   0.4444444   0.4444444), wk =   0.0219479
        k(    6) = (   0.0000000   0.0000000   0.2222222), wk =   0.0164609
        k(    7) = (  -0.1111111   0.1111111   0.3333333), wk =   0.0658436
        k(    8) = (  -0.2222222   0.2222222   0.4444444), wk =   0.0658436
        k(    9) = (  -0.3333333   0.3333333   0.5555556), wk =   0.0658436
        k(   10) = (   0.5555556  -0.5555556  -0.3333333), wk =   0.0658436
        k(   11) = (   0.4444444  -0.4444444  -0.2222222), wk =   0.0658436
        k(   12) = (   0.3333333  -0.3333333  -0.1111111), wk =   0.0658436
        k(   13) = (   0.2222222  -0.2222222  -0.0000000), wk =   0.0329218
        k(   14) = (   0.0000000   0.0000000   0.4444444), wk =   0.0164609
        k(   15) = (  -0.1111111   0.1111111   0.5555556), wk =   0.0658436
        k(   16) = (  -0.2222222   0.2222222   0.6666667), wk =   0.0658436
        k(   17) = (   0.6666667  -0.6666667  -0.2222222), wk =   0.0658436
        k(   18) = (   0.5555556  -0.5555556  -0.1111111), wk =   0.0658436
        k(   19) = (   0.4444444  -0.4444444   0.0000000), wk =   0.0329218
        k(   20) = (   0.0000000   0.0000000   0.6666667), wk =   0.0164609
        k(   21) = (  -0.1111111   0.1111111   0.7777778), wk =   0.0658436
        k(   22) = (   0.7777778  -0.7777778  -0.1111111), wk =   0.0658436
        k(   23) = (   0.6666667  -0.6666667  -0.0000000), wk =   0.0329218
        k(   24) = (   0.0000000   0.0000000   0.8888889), wk =   0.0164609
        k(   25) = (   0.8888889  -0.8888889   0.0000000), wk =   0.0329218
        k(   26) = (   0.0000000   0.2222222   0.4444444), wk =   0.0658436
        k(   27) = (  -0.1111111   0.3333333   0.5555556), wk =   0.1316872
        k(   28) = (   0.7777778  -0.5555556  -0.3333333), wk =   0.1316872
        k(   29) = (   0.0000000   0.2222222   0.6666667), wk =   0.0658436
        k(   30) = (   0.8888889  -0.6666667  -0.2222222), wk =   0.1316872
        k(   31) = (   0.7777778  -0.5555556  -0.1111111), wk =   0.1316872
        k(   32) = (   0.6666667  -0.4444444   0.0000000), wk =   0.0658436
        k(   33) = (   1.0000000  -0.7777778  -0.1111111), wk =   0.0658436
        k(   34) = (   0.8888889  -0.6666667  -0.0000000), wk =   0.0658436
        k(   35) = (   1.0000000  -0.5555556  -0.1111111), wk =   0.0658436

     Dense  grid:    17933 G-vectors     FFT dimensions: (  40,  40,  40)

     Smooth grid:    12675 G-vectors     FFT dimensions: (  36,  36,  36)

     Estimated max dynamical RAM per process >      82.63 MB

     Check: negative core charge=   -0.000005

     Initial potential from superposition of free atoms

     starting charge   15.99370, renormalised to   16.00000
     Starting wfcs are    9 randomized atomic wfcs +    3 random wfcs
     Checking if some PAW data can be deallocated... 

     total cpu time spent up to now is        8.8 secs

     Self-consistent Calculation

     iteration #  1     ecut=    46.00 Ry     beta= 0.70
     Davidson diagonalization with overlap
     ethr =  1.00E-02,  avg # of iterations =  6.0

     Threshold (ethr) on eigenvalues was too large:
     Diagonalizing with lowered threshold

     Davidson diagonalization with overlap
     ethr =  3.29E-04,  avg # of iterations =  2.2

     total cpu time spent up to now is       20.6 secs

     total energy              =    -188.82303988 Ry
     Harris-Foulkes estimate   =    -188.85433005 Ry
     estimated scf accuracy    <       0.05146795 Ry

     iteration #  2     ecut=    46.00 Ry     beta= 0.70
     Davidson diagonalization with overlap
     ethr =  3.22E-04,  avg # of iterations =  2.0

     total cpu time spent up to now is       26.5 secs

     total energy              =    -188.83674241 Ry
     Harris-Foulkes estimate   =    -188.84356473 Ry
     estimated scf accuracy    <       0.01250399 Ry

     iteration #  3     ecut=    46.00 Ry     beta= 0.70
     Davidson diagonalization with overlap
     ethr =  7.81E-05,  avg # of iterations =  2.0

     total cpu time spent up to now is       32.3 secs

     total energy              =    -188.83957809 Ry
     Harris-Foulkes estimate   =    -188.83945858 Ry
     estimated scf accuracy    <       0.00026812 Ry

     iteration #  4     ecut=    46.00 Ry     beta= 0.70
     Davidson diagonalization with overlap
     ethr =  1.68E-06,  avg # of iterations =  4.4

     total cpu time spent up to now is       39.2 secs

     total energy              =    -188.83961635 Ry
     Harris-Foulkes estimate   =    -188.83961485 Ry
     estimated scf accuracy    <       0.00000145 Ry

     iteration #  5     ecut=    46.00 Ry     beta= 0.70
     Davidson diagonalization with overlap
     ethr =  9.04E-09,  avg # of iterations =  3.0

     total cpu time spent up to now is       46.0 secs

     total energy              =    -188.83961748 Ry
     Harris-Foulkes estimate   =    -188.83961727 Ry
     estimated scf accuracy    <       0.00000017 Ry

     iteration #  6     ecut=    46.00 Ry     beta= 0.70
     Davidson diagonalization with overlap
     ethr =  1.05E-09,  avg # of iterations =  2.0

     total cpu time spent up to now is       52.1 secs

     End of self-consistent calculation

          k = 0.0000 0.0000 0.0000 (  1639 PWs)   bands (ev):

   -47.9592 -19.8610 -19.8610 -19.8610 -11.6865   0.9711   0.9711   0.9711
     6.0781  12.0031  12.0031  12.0031

          k =-0.1111 0.1111 0.1111 (  1573 PWs)   bands (ev):

   -47.9590 -19.8616 -19.8588 -19.8588 -11.6492   0.6730   0.9387   0.9387
     6.4845  11.5719  12.1616  12.1616

          k =-0.2222 0.2222 0.2222 (  1585 PWs)   bands (ev):

   -47.9588 -19.8723 -19.8596 -19.8596 -11.5528   0.0393   0.8579   0.8579
     7.3501  11.0139  12.3332  12.3332

          k =-0.3333 0.3333 0.3333 (  1609 PWs)   bands (ev):

   -47.9585 -19.8831 -19.8615 -19.8615 -11.4393  -0.5584   0.7694   0.7694
     8.0324  11.0377  12.1369  12.1369

          k =-0.4444 0.4444 0.4444 (  1580 PWs)   bands (ev):

   -47.9583 -19.8875 -19.8609 -19.8609 -11.3624  -0.9056   0.7136   0.7136
     8.2461  11.5111  11.9487  11.9487

          k = 0.0000 0.0000 0.2222 (  1583 PWs)   bands (ev):

   -47.9590 -19.8616 -19.8601 -19.8601 -11.6375   0.6513   0.8938   0.8938
     6.6147  11.3369  12.2954  12.2954

          k =-0.1111 0.1111 0.3333 (  1589 PWs)   bands (ev):

   -47.9588 -19.8694 -19.8613 -19.8602 -11.5629   0.1870   0.8053   0.8199
     7.3336  10.8149  12.3315  12.5712

          k =-0.2222 0.2222 0.4444 (  1593 PWs)   bands (ev):

   -47.9586 -19.8790 -19.8623 -19.8611 -11.4571  -0.3700   0.7083   0.7168
     8.1381  10.6683  11.8221  12.5021

          k =-0.3333 0.3333 0.5556 (  1597 PWs)   bands (ev):

   -47.9584 -19.8858 -19.8627 -19.8626 -11.3692  -0.7645   0.5970   0.6677
     8.5137  11.0755  11.5568  12.2610

          k = 0.5556-0.5556-0.3333 (  1589 PWs)   bands (ev):

   -47.9583 -19.8868 -19.8636 -19.8620 -11.3432  -0.8698   0.5367   0.6781
     8.5805  11.2262  11.6478  12.1462

          k = 0.4444-0.4444-0.2222 (  1590 PWs)   bands (ev):

   -47.9584 -19.8838 -19.8637 -19.8605 -11.3931  -0.6573   0.5553   0.7441
     8.4678  11.0140  11.6217  12.2489

          k = 0.3333-0.3333-0.1111 (  1587 PWs)   bands (ev):

   -47.9586 -19.8758 -19.8628 -19.8594 -11.4926  -0.1964   0.6532   0.8377
     7.9122  10.7620  12.0112  12.5349

          k = 0.2222-0.2222-0.0000 (  1584 PWs)   bands (ev):

   -47.9589 -19.8670 -19.8610 -19.8592 -11.5930   0.3353   0.8059   0.9159
     7.0464  11.1096  12.2878  12.4189

          k = 0.0000 0.0000 0.4444 (  1603 PWs)   bands (ev):

   -47.9587 -19.8705 -19.8633 -19.8633 -11.5184   0.0474   0.7083   0.7083
     7.7665  10.2845  12.0816  13.0974

          k =-0.1111 0.1111 0.5556 (  1596 PWs)   bands (ev):

   -47.9585 -19.8757 -19.8644 -19.8638 -11.4386  -0.2893   0.5724   0.6147
     8.4343   9.9820  11.4969  13.3048

          k =-0.2222 0.2222 0.6667 (  1608 PWs)   bands (ev):

   -47.9583 -19.8818 -19.8664 -19.8649 -11.3598  -0.5662   0.3663   0.5655
     8.9587  10.2309  11.1118  13.0536

          k = 0.6667-0.6667-0.2222 (  1593 PWs)   bands (ev):

   -47.9582 -19.8830 -19.8680 -19.8638 -11.3200  -0.6658   0.1837   0.5808
     9.2155  10.4958  11.2470  12.8015

          k = 0.5556-0.5556-0.1111 (  1592 PWs)   bands (ev):

   -47.9583 -19.8820 -19.8691 -19.8620 -11.3397  -0.5857   0.1462   0.6545
     9.3031  10.7007  10.9631  12.7153

          k = 0.4444-0.4444 0.0000 (  1580 PWs)   bands (ev):

   -47.9584 -19.8788 -19.8664 -19.8599 -11.4085  -0.4110   0.3342   0.7559
     8.7965  10.5903  11.2878  12.7747

          k = 0.0000 0.0000 0.6667 (  1580 PWs)   bands (ev):

   -47.9583 -19.8757 -19.8651 -19.8651 -11.3917  -0.4263   0.5142   0.5142
     8.5987   9.4831  11.5304  14.2503

          k =-0.1111 0.1111 0.7778 (  1605 PWs)   bands (ev):

   -47.9582 -19.8794 -19.8681 -19.8666 -11.3382  -0.5565   0.3416   0.4589
     8.8118   9.4228  11.5733  14.2263

          k = 0.7778-0.7778-0.1111 (  1599 PWs)   bands (ev):

   -47.9581 -19.8788 -19.8721 -19.8657 -11.3034  -0.5136   0.0146   0.4716
     9.1147   9.8699  11.4988  13.7648

          k = 0.6667-0.6667-0.0000 (  1596 PWs)   bands (ev):

   -47.9581 -19.8778 -19.8747 -19.8640 -11.3040  -0.3520  -0.2465   0.5472
     9.5306  10.2985  11.1479  13.2686

          k = 0.0000 0.0000 0.8889 (  1604 PWs)   bands (ev):

   -47.9581 -19.8806 -19.8677 -19.8677 -11.3149  -0.6538   0.3953   0.3953
     8.5430   9.0665  12.1496  15.5155

          k = 0.8889-0.8889 0.0000 (  1604 PWs)   bands (ev):

   -47.9581 -19.8797 -19.8699 -19.8675 -11.3012  -0.6284   0.2457   0.4000
     8.6950   9.2257  12.1238  14.8064

          k = 0.0000 0.2222 0.4444 (  1589 PWs)   bands (ev):

   -47.9586 -19.8743 -19.8637 -19.8608 -11.4854  -0.1414   0.5965   0.7685
     8.0658  10.4301  11.7968  13.0764

          k =-0.1111 0.3333 0.5556 (  1598 PWs)   bands (ev):

   -47.9584 -19.8805 -19.8663 -19.8620 -11.3948  -0.4854   0.4054   0.6759
     8.8172  10.4696  11.1884  12.8167

          k = 0.7778-0.5556-0.3333 (  1592 PWs)   bands (ev):

   -47.9582 -19.8839 -19.8666 -19.8630 -11.3341  -0.7012   0.3045   0.6026
     9.0991  10.6948  11.1927  12.5965

          k = 0.0000 0.2222 0.6667 (  1606 PWs)   bands (ev):

   -47.9583 -19.8787 -19.8675 -19.8652 -11.3732  -0.4604   0.3781   0.5288
     8.9645   9.7948  11.1524  13.6256

          k = 0.8889-0.6667-0.2222 (  1597 PWs)   bands (ev):

   -47.9582 -19.8796 -19.8697 -19.8657 -11.3196  -0.5220   0.1353   0.4526
     9.4023  10.0879  10.9359  13.2849

          k = 0.7778-0.5556-0.1111 (  1589 PWs)   bands (ev):

   -47.9581 -19.8792 -19.8716 -19.8647 -11.3040  -0.4716  -0.0570   0.4725
     9.7512  10.2033  10.9861  12.9224

          k = 0.6667-0.4444 0.0000 (  1596 PWs)   bands (ev):

   -47.9582 -19.8801 -19.8706 -19.8633 -11.3341  -0.4841   0.0660   0.5691
     9.6810  10.4762  10.5097  13.0147

          k = 1.0000-0.7778-0.1111 (  1596 PWs)   bands (ev):

   -47.9581 -19.8785 -19.8691 -19.8680 -11.3065  -0.5690   0.2454   0.3401
     8.9624   9.4449  11.7221  13.9842

          k = 0.8889-0.6667-0.0000 (  1603 PWs)   bands (ev):

   -47.9581 -19.8773 -19.8734 -19.8675 -11.2930  -0.4312  -0.0479   0.3550
     9.3443   9.9291  11.4406  13.1460

          k = 1.0000-0.5556-0.1111 (  1603 PWs)   bands (ev):

   -47.9581 -19.8765 -19.8736 -19.8682 -11.2934  -0.3454  -0.0952   0.2893
     9.7953  10.3859  10.7135  12.6664

     the Fermi energy is     3.6990 ev

!    total energy              =    -188.83961753 Ry
     Harris-Foulkes estimate   =    -188.83961754 Ry
     estimated scf accuracy    <          7.0E-09 Ry

     total all-electron energy =     -1248.126633 Ry

     The total energy is the sum of the following terms:

     one-electron contribution =     -80.90318411 Ry
     hartree contribution      =      47.13500151 Ry
     xc contribution           =     -25.67510597 Ry
     ewald contribution        =     -68.79919274 Ry
     one-center paw contrib.   =     -60.59713621 Ry
     smearing contrib. (-TS)   =       0.00000000 Ry

     convergence has been achieved in   6 iterations

     Forces acting on atoms (cartesian axes, Ry/au):

     atom    1 type  2   force =     0.00000000    0.00000000    0.00000000
     atom    2 type  1   force =     0.00000000    0.00000000   -0.00000000

     Total force =     0.000000     Total SCF correction =     0.000000


     Computing stress (Cartesian axis) and pressure

          total   stress  (Ry/bohr**3)                   (kbar)     P=   -8.91
  -0.00006058   0.00000000   0.00000000         -8.91      0.00      0.00
   0.00000000  -0.00006058   0.00000000          0.00     -8.91      0.00
   0.00000000   0.00000000  -0.00006058          0.00      0.00     -8.91


     Writing output data file halite.save/

     init_run     :      4.55s CPU      4.61s WALL (       1 calls)
     electrons    :     42.69s CPU     43.24s WALL (       1 calls)
     forces       :      0.79s CPU      0.82s WALL (       1 calls)
     stress       :      1.67s CPU      1.70s WALL (       1 calls)

     Called by init_run:
     wfcinit      :      1.56s CPU      1.57s WALL (       1 calls)
     potinit      :      0.71s CPU      0.71s WALL (       1 calls)
     hinit0       :      2.09s CPU      2.09s WALL (       1 calls)

     Called by electrons:
     c_bands      :     31.15s CPU     31.38s WALL (       7 calls)
     sum_band     :      6.57s CPU      6.77s WALL (       7 calls)
     v_of_rho     :      0.55s CPU      0.55s WALL (       7 calls)
     newd         :      1.10s CPU      1.24s WALL (       7 calls)
     PAW_pot      :      4.00s CPU      4.02s WALL (       7 calls)
     mix_rho      :      0.07s CPU      0.07s WALL (       7 calls)

     Called by c_bands:
     init_us_2    :      0.58s CPU      0.58s WALL (     595 calls)
     cegterg      :     30.36s CPU     30.59s WALL (     245 calls)

     Called by sum_band:
     sum_band:bec :      0.01s CPU      0.01s WALL (     245 calls)
     addusdens    :      1.33s CPU      1.51s WALL (       7 calls)

     Called by *egterg:
     h_psi        :     24.48s CPU     24.66s WALL (    1034 calls)
     s_psi        :      1.63s CPU      1.65s WALL (    1034 calls)
     g_psi        :      0.06s CPU      0.06s WALL (     754 calls)
     cdiaghg      :      0.65s CPU      0.66s WALL (     964 calls)

     Called by h_psi:
     h_psi:pot    :     24.43s CPU     24.61s WALL (    1034 calls)
     h_psi:calbec :      1.81s CPU      1.82s WALL (    1034 calls)
     vloc_psi     :     20.98s CPU     21.13s WALL (    1034 calls)
     add_vuspsi   :      1.64s CPU      1.65s WALL (    1034 calls)

     General routines
     calbec       :      2.88s CPU      2.90s WALL (    1454 calls)
     fft          :      0.46s CPU      0.46s WALL (     115 calls)
     ffts         :      0.05s CPU      0.05s WALL (      14 calls)
     fftw         :     21.61s CPU     21.77s WALL (   19338 calls)
     interpolate  :      0.05s CPU      0.05s WALL (       7 calls)

     Parallel routines

     PWSCF        :     53.97s CPU     54.70s WALL


   This run was terminated on:  18:26:18  18Feb2020            

=------------------------------------------------------------------------------=
   JOB DONE.
=------------------------------------------------------------------------------=
