     Message from routine get_command_line:
     unexpected argument # 2     :-input

     Program PWSCF v.6.4.1 starts on 18Feb2020 at 18:26:19 

     This program is part of the open-source Quantum ESPRESSO suite
     for quantum simulation of materials; please cite
         "P. Giannozzi et al., J. Phys.:Condens. Matter 21 395502 (2009);
         "P. Giannozzi et al., J. Phys.:Condens. Matter 29 465901 (2017);
          URL http://www.quantum-espresso.org", 
     in publications or presentations arising from this work. More details at
     http://www.quantum-espresso.org/quote

     Parallel version (MPI), running on     1 processors

     MPI processes distributed on     1 nodes
     Waiting for input...
     Reading input from standard input

     Current dimensions of program PWSCF are:
     Max number of different atomic species (ntypx) = 10
     Max number of k-points (npk) =  40000
     Max angular momentum in pseudopotentials (lmaxx) =  3
     Message from routine volume:
     axis vectors are left-handed

     IMPORTANT: XC functional enforced from input :
     Exchange-correlation      = PBE ( 1  4  3  4 0 0)
     Any further DFT definition will be discarded
     Please, verify this is what you really want

               file Na.pbe-spn-kjpaw_psl.1.0.0.UPF: wavefunction(s)  2P renormalized
               file Cl.pbe-n-kjpaw_psl.1.0.0.UPF: wavefunction(s)  3S 3P renormalized

     Subspace diagonalization in iterative solution of the eigenvalue problem:
     a serial algorithm will be used

     Message from routine setup:
     DEPRECATED: symmetry with ibrav=0, use correct ibrav instead

     G-vector sticks info
     --------------------
     sticks:   dense  smooth     PW     G-vecs:    dense   smooth      PW
     Sum        1099     871    265                23973    17153    2837



     bravais-lattice index     =            0
     lattice parameter (alat)  =      10.6591  a.u.
     unit-cell volume          =     302.7633 (a.u.)^3
     number of atoms/cell      =            2
     number of atomic types    =            2
     number of electrons       =        16.00
     number of Kohn-Sham states=           12
     kinetic-energy cutoff     =      56.0000  Ry
     charge density cutoff     =     280.0000  Ry
     convergence threshold     =      1.0E-08
     mixing beta               =       0.7000
     number of iterations used =            8  plain     mixing
     Exchange-correlation      = PBE ( 1  4  3  4 0 0)

     celldm(1)=  10.659114  celldm(2)=   0.000000  celldm(3)=   0.000000
     celldm(4)=   0.000000  celldm(5)=   0.000000  celldm(6)=   0.000000

     crystal axes: (cart. coord. in units of alat)
               a(1) = (   0.500000   0.500000   0.000000 )  
               a(2) = (   0.500000   0.000000   0.500000 )  
               a(3) = (   0.000000   0.500000   0.500000 )  

     reciprocal axes: (cart. coord. in units 2 pi/alat)
               b(1) = (  1.000000  1.000000 -1.000000 )  
               b(2) = (  1.000000 -1.000000  1.000000 )  
               b(3) = ( -1.000000  1.000000  1.000000 )  


     PseudoPot. # 1 for Na read from file:
     ./Na.pbe-spn-kjpaw_psl.1.0.0.UPF
     MD5 check sum: 05b4deb74e3932c23ab016979dc8b5d4
     Pseudo is Projector augmented-wave + core cor, Zval =  9.0
     Generated using "atomic" code by A. Dal Corso v.6.3
     Shape of augmentation charge: PSQ
     Using radial grid of 1121 points,  4 beta functions with: 
                l(1) =   0
                l(2) =   0
                l(3) =   1
                l(4) =   1
     Q(r) pseudized with 0 coefficients 


     PseudoPot. # 2 for Cl read from file:
     ./Cl.pbe-n-kjpaw_psl.1.0.0.UPF
     MD5 check sum: 530da96d25dcb7781b0586ca00827062
     Pseudo is Projector augmented-wave + core cor, Zval =  7.0
     Generated using "atomic" code by A. Dal Corso v.6.3
     Shape of augmentation charge: PSQ
     Using radial grid of 1157 points,  6 beta functions with: 
                l(1) =   0
                l(2) =   0
                l(3) =   1
                l(4) =   1
                l(5) =   2
                l(6) =   2
     Q(r) pseudized with 0 coefficients 


     atomic species   valence    mass     pseudopotential
        Na             9.00    22.98900     Na( 1.00)
        Cl             7.00    35.45150     Cl( 1.00)

     48 Sym. Ops., with inversion, found



   Cartesian axes

     site n.     atom                  positions (alat units)
         1           Cl  tau(   1) = (   0.5000000   0.5000000   0.5000000  )
         2           Na  tau(   2) = (   0.0000000   0.0000000   0.0000000  )

     number of k points=    35  Marzari-Vanderbilt smearing, width (Ry)=  0.0050
                       cart. coord. in units 2pi/alat
        k(    1) = (   0.0000000   0.0000000   0.0000000), wk =   0.0027435
        k(    2) = (  -0.1111111   0.1111111   0.1111111), wk =   0.0219479
        k(    3) = (  -0.2222222   0.2222222   0.2222222), wk =   0.0219479
        k(    4) = (  -0.3333333   0.3333333   0.3333333), wk =   0.0219479
        k(    5) = (  -0.4444444   0.4444444   0.4444444), wk =   0.0219479
        k(    6) = (   0.0000000   0.0000000   0.2222222), wk =   0.0164609
        k(    7) = (  -0.1111111   0.1111111   0.3333333), wk =   0.0658436
        k(    8) = (  -0.2222222   0.2222222   0.4444444), wk =   0.0658436
        k(    9) = (  -0.3333333   0.3333333   0.5555556), wk =   0.0658436
        k(   10) = (   0.5555556  -0.5555556  -0.3333333), wk =   0.0658436
        k(   11) = (   0.4444444  -0.4444444  -0.2222222), wk =   0.0658436
        k(   12) = (   0.3333333  -0.3333333  -0.1111111), wk =   0.0658436
        k(   13) = (   0.2222222  -0.2222222  -0.0000000), wk =   0.0329218
        k(   14) = (   0.0000000   0.0000000   0.4444444), wk =   0.0164609
        k(   15) = (  -0.1111111   0.1111111   0.5555556), wk =   0.0658436
        k(   16) = (  -0.2222222   0.2222222   0.6666667), wk =   0.0658436
        k(   17) = (   0.6666667  -0.6666667  -0.2222222), wk =   0.0658436
        k(   18) = (   0.5555556  -0.5555556  -0.1111111), wk =   0.0658436
        k(   19) = (   0.4444444  -0.4444444   0.0000000), wk =   0.0329218
        k(   20) = (   0.0000000   0.0000000   0.6666667), wk =   0.0164609
        k(   21) = (  -0.1111111   0.1111111   0.7777778), wk =   0.0658436
        k(   22) = (   0.7777778  -0.7777778  -0.1111111), wk =   0.0658436
        k(   23) = (   0.6666667  -0.6666667  -0.0000000), wk =   0.0329218
        k(   24) = (   0.0000000   0.0000000   0.8888889), wk =   0.0164609
        k(   25) = (   0.8888889  -0.8888889   0.0000000), wk =   0.0329218
        k(   26) = (   0.0000000   0.2222222   0.4444444), wk =   0.0658436
        k(   27) = (  -0.1111111   0.3333333   0.5555556), wk =   0.1316872
        k(   28) = (   0.7777778  -0.5555556  -0.3333333), wk =   0.1316872
        k(   29) = (   0.0000000   0.2222222   0.6666667), wk =   0.0658436
        k(   30) = (   0.8888889  -0.6666667  -0.2222222), wk =   0.1316872
        k(   31) = (   0.7777778  -0.5555556  -0.1111111), wk =   0.1316872
        k(   32) = (   0.6666667  -0.4444444   0.0000000), wk =   0.0658436
        k(   33) = (   1.0000000  -0.7777778  -0.1111111), wk =   0.0658436
        k(   34) = (   0.8888889  -0.6666667  -0.0000000), wk =   0.0658436
        k(   35) = (   1.0000000  -0.5555556  -0.1111111), wk =   0.0658436

     Dense  grid:    23973 G-vectors     FFT dimensions: (  45,  45,  45)

     Smooth grid:    17153 G-vectors     FFT dimensions: (  36,  36,  36)

     Estimated max dynamical RAM per process >     109.96 MB

     Check: negative core charge=   -0.000005

     Initial potential from superposition of free atoms

     starting charge   15.99370, renormalised to   16.00000
     Starting wfcs are    9 randomized atomic wfcs +    3 random wfcs
     Checking if some PAW data can be deallocated... 

     total cpu time spent up to now is        9.3 secs

     Self-consistent Calculation

     iteration #  1     ecut=    56.00 Ry     beta= 0.70
     Davidson diagonalization with overlap
     ethr =  1.00E-02,  avg # of iterations =  6.1

     Threshold (ethr) on eigenvalues was too large:
     Diagonalizing with lowered threshold

     Davidson diagonalization with overlap
     ethr =  3.26E-04,  avg # of iterations =  1.7

     total cpu time spent up to now is       22.6 secs

     total energy              =    -188.82652503 Ry
     Harris-Foulkes estimate   =    -188.85761330 Ry
     estimated scf accuracy    <       0.05113409 Ry

     iteration #  2     ecut=    56.00 Ry     beta= 0.70
     Davidson diagonalization with overlap
     ethr =  3.20E-04,  avg # of iterations =  2.0

     total cpu time spent up to now is       29.1 secs

     total energy              =    -188.84018395 Ry
     Harris-Foulkes estimate   =    -188.84696832 Ry
     estimated scf accuracy    <       0.01244053 Ry

     iteration #  3     ecut=    56.00 Ry     beta= 0.70
     Davidson diagonalization with overlap
     ethr =  7.78E-05,  avg # of iterations =  2.1

     total cpu time spent up to now is       35.6 secs

     total energy              =    -188.84302004 Ry
     Harris-Foulkes estimate   =    -188.84289767 Ry
     estimated scf accuracy    <       0.00026619 Ry

     iteration #  4     ecut=    56.00 Ry     beta= 0.70
     Davidson diagonalization with overlap
     ethr =  1.66E-06,  avg # of iterations =  4.3

     total cpu time spent up to now is       43.9 secs

     total energy              =    -188.84306594 Ry
     Harris-Foulkes estimate   =    -188.84306393 Ry
     estimated scf accuracy    <       0.00000102 Ry

     iteration #  5     ecut=    56.00 Ry     beta= 0.70
     Davidson diagonalization with overlap
     ethr =  6.37E-09,  avg # of iterations =  3.4

     total cpu time spent up to now is       51.5 secs

     total energy              =    -188.84306703 Ry
     Harris-Foulkes estimate   =    -188.84306692 Ry
     estimated scf accuracy    <       0.00000005 Ry

     iteration #  6     ecut=    56.00 Ry     beta= 0.70
     Davidson diagonalization with overlap
     ethr =  3.19E-10,  avg # of iterations =  2.3

     total cpu time spent up to now is       58.2 secs

     End of self-consistent calculation

          k = 0.0000 0.0000 0.0000 (  2109 PWs)   bands (ev):

   -47.9468 -19.8567 -19.8567 -19.8567 -11.6935   0.9635   0.9635   0.9635
     6.0694  12.0004  12.0004  12.0005

          k =-0.1111 0.1111 0.1111 (  2124 PWs)   bands (ev):

   -47.9467 -19.8604 -19.8569 -19.8569 -11.6564   0.6653   0.9309   0.9309
     6.4709  11.5679  12.1574  12.1574

          k =-0.2222 0.2222 0.2222 (  2133 PWs)   bands (ev):

   -47.9465 -19.8690 -19.8577 -19.8577 -11.5602   0.0324   0.8507   0.8507
     7.3338  11.0077  12.3163  12.3164

          k =-0.3333 0.3333 0.3333 (  2138 PWs)   bands (ev):

   -47.9463 -19.8788 -19.8585 -19.8585 -11.4468  -0.5648   0.7629   0.7629
     8.0139  11.0288  12.1059  12.1059

          k =-0.4444 0.4444 0.4444 (  2141 PWs)   bands (ev):

   -47.9461 -19.8852 -19.8589 -19.8589 -11.3703  -0.9121   0.7074   0.7074
     8.2228  11.4968  11.9089  11.9089

          k = 0.0000 0.0000 0.2222 (  2133 PWs)   bands (ev):

   -47.9467 -19.8602 -19.8577 -19.8577 -11.6448   0.6444   0.8858   0.8858
     6.6019  11.3359  12.2892  12.2892

          k =-0.1111 0.1111 0.3333 (  2136 PWs)   bands (ev):

   -47.9466 -19.8664 -19.8588 -19.8583 -11.5702   0.1804   0.7973   0.8123
     7.3192  10.8125  12.3097  12.5576

          k =-0.2222 0.2222 0.4444 (  2137 PWs)   bands (ev):

   -47.9463 -19.8753 -19.8596 -19.8590 -11.4647  -0.3768   0.7013   0.7092
     8.1204  10.6627  11.7895  12.4750

          k =-0.3333 0.3333 0.5556 (  2133 PWs)   bands (ev):

   -47.9461 -19.8822 -19.8601 -19.8597 -11.3769  -0.7713   0.5902   0.6608
     8.4939  11.0603  11.5288  12.2254

          k = 0.5556-0.5556-0.3333 (  2139 PWs)   bands (ev):

   -47.9461 -19.8843 -19.8610 -19.8593 -11.3510  -0.8766   0.5296   0.6718
     8.5581  11.2012  11.6276  12.1064

          k = 0.4444-0.4444-0.2222 (  2135 PWs)   bands (ev):

   -47.9462 -19.8803 -19.8611 -19.8585 -11.4008  -0.6639   0.5477   0.7379
     8.4479  11.0035  11.5917  12.2090

          k = 0.3333-0.3333-0.1111 (  2135 PWs)   bands (ev):

   -47.9464 -19.8725 -19.8604 -19.8576 -11.5001  -0.2030   0.6449   0.8312
     7.8952  10.7556  11.9859  12.5076

          k = 0.2222-0.2222-0.0000 (  2127 PWs)   bands (ev):

   -47.9466 -19.8645 -19.8587 -19.8570 -11.6003   0.3284   0.7975   0.9088
     7.0320  11.1055  12.2732  12.4162

          k = 0.0000 0.0000 0.4444 (  2137 PWs)   bands (ev):

   -47.9464 -19.8673 -19.8602 -19.8602 -11.5258   0.0410   0.6999   0.6999
     7.7535  10.2849  12.0438  13.0823

          k =-0.1111 0.1111 0.5556 (  2128 PWs)   bands (ev):

   -47.9462 -19.8725 -19.8614 -19.8612 -11.4460  -0.2964   0.5639   0.6062
     8.4199   9.9812  11.4612  13.2809

          k =-0.2222 0.2222 0.6667 (  2135 PWs)   bands (ev):

   -47.9460 -19.8777 -19.8633 -19.8615 -11.3673  -0.5739   0.3583   0.5575
     8.9423  10.2232  11.0860  13.0207

          k = 0.6667-0.6667-0.2222 (  2144 PWs)   bands (ev):

   -47.9460 -19.8801 -19.8654 -19.8609 -11.3277  -0.6736   0.1754   0.5735
     9.1959  10.4726  11.2348  12.7610

          k = 0.5556-0.5556-0.1111 (  2143 PWs)   bands (ev):

   -47.9460 -19.8789 -19.8662 -19.8597 -11.3474  -0.5927   0.1372   0.6480
     9.2828  10.6766  10.9517  12.6687

          k = 0.4444-0.4444 0.0000 (  2133 PWs)   bands (ev):

   -47.9462 -19.8758 -19.8641 -19.8584 -11.4161  -0.4175   0.3248   0.7496
     8.7771  10.5824  11.2601  12.7238

          k = 0.0000 0.0000 0.6667 (  2129 PWs)   bands (ev):

   -47.9461 -19.8735 -19.8629 -19.8629 -11.3991  -0.4349   0.5049   0.5049
     8.5828   9.4840  11.4949  14.2207

          k =-0.1111 0.1111 0.7778 (  2142 PWs)   bands (ev):

   -47.9460 -19.8757 -19.8649 -19.8635 -11.3456  -0.5659   0.3326   0.4498
     8.7945   9.4223  11.5483  14.1935

          k = 0.7778-0.7778-0.1111 (  2143 PWs)   bands (ev):

   -47.9459 -19.8756 -19.8689 -19.8629 -11.3108  -0.5236   0.0061   0.4632
     9.0968   9.8626  11.4811  13.7238

          k = 0.6667-0.6667-0.0000 (  2139 PWs)   bands (ev):

   -47.9459 -19.8750 -19.8711 -19.8614 -11.3116  -0.3595  -0.2565   0.5397
     9.5096  10.2834  11.1355  13.2213

          k = 0.0000 0.0000 0.8889 (  2148 PWs)   bands (ev):

   -47.9459 -19.8767 -19.8647 -19.8647 -11.3221  -0.6641   0.3856   0.3856
     8.5253   9.0677  12.1269  15.4688

          k = 0.8889-0.8889 0.0000 (  2149 PWs)   bands (ev):

   -47.9459 -19.8763 -19.8666 -19.8644 -11.3084  -0.6392   0.2366   0.3907
     8.6767   9.2254  12.1036  14.7687

          k = 0.0000 0.2222 0.4444 (  2140 PWs)   bands (ev):

   -47.9464 -19.8711 -19.8613 -19.8587 -11.4928  -0.1480   0.5876   0.7614
     8.0499  10.4271  11.7644  13.0429

          k =-0.1111 0.3333 0.5556 (  2132 PWs)   bands (ev):

   -47.9461 -19.8767 -19.8632 -19.8595 -11.4023  -0.4923   0.3968   0.6691
     8.7996  10.4635  11.1585  12.7797

          k = 0.7778-0.5556-0.3333 (  2154 PWs)   bands (ev):

   -47.9461 -19.8809 -19.8640 -19.8606 -11.3418  -0.7086   0.2962   0.5957
     9.0792  10.6696  11.1798  12.5546

          k = 0.0000 0.2222 0.6667 (  2138 PWs)   bands (ev):

   -47.9461 -19.8750 -19.8642 -19.8621 -11.3806  -0.4683   0.3689   0.5209
     8.9481   9.7936  11.1230  13.5911

          k = 0.8889-0.6667-0.2222 (  2143 PWs)   bands (ev):

   -47.9460 -19.8765 -19.8666 -19.8630 -11.3272  -0.5308   0.1261   0.4449
     9.3841  10.0793  10.9155  13.2431

          k = 0.7778-0.5556-0.1111 (  2157 PWs)   bands (ev):

   -47.9460 -19.8765 -19.8688 -19.8626 -11.3116  -0.4802  -0.0665   0.4651
     9.7312  10.1843  10.9762  12.8751

          k = 0.6667-0.4444 0.0000 (  2146 PWs)   bands (ev):

   -47.9460 -19.8767 -19.8675 -19.8610 -11.3417  -0.4914   0.0562   0.5622
     9.6625  10.4504  10.5025  12.9675

          k = 1.0000-0.7778-0.1111 (  2147 PWs)   bands (ev):

   -47.9459 -19.8757 -19.8661 -19.8652 -11.3138  -0.5795   0.2357   0.3319
     8.9425   9.4444  11.7012  13.9432

          k = 0.8889-0.6667-0.0000 (  2162 PWs)   bands (ev):

   -47.9459 -19.8737 -19.8702 -19.8647 -11.3005  -0.4417  -0.0568   0.3471
     9.3245   9.9236  11.4268  13.1011

          k = 1.0000-0.5556-0.1111 (  2165 PWs)   bands (ev):

   -47.9460 -19.8734 -19.8697 -19.8657 -11.3009  -0.3550  -0.1051   0.2822
     9.7753  10.3803  10.6990  12.6198

     the Fermi energy is     3.6634 ev

!    total energy              =    -188.84306706 Ry
     Harris-Foulkes estimate   =    -188.84306706 Ry
     estimated scf accuracy    <          1.5E-09 Ry

     total all-electron energy =     -1248.130082 Ry

     The total energy is the sum of the following terms:

     one-electron contribution =     -80.91195281 Ry
     hartree contribution      =      47.13889127 Ry
     xc contribution           =     -25.67437023 Ry
     ewald contribution        =     -68.79919271 Ry
     one-center paw contrib.   =     -60.59644258 Ry
     smearing contrib. (-TS)   =       0.00000000 Ry

     convergence has been achieved in   6 iterations

     Forces acting on atoms (cartesian axes, Ry/au):

     atom    1 type  2   force =     0.00000000    0.00000000    0.00000000
     atom    2 type  1   force =     0.00000000    0.00000000    0.00000000

     Total force =     0.000000     Total SCF correction =     0.000000


     Computing stress (Cartesian axis) and pressure

          total   stress  (Ry/bohr**3)                   (kbar)     P=    4.28
   0.00002911   0.00000000   0.00000000          4.28      0.00      0.00
   0.00000000   0.00002911   0.00000000          0.00      4.28      0.00
   0.00000000   0.00000000   0.00002911          0.00      0.00      4.28


     Writing output data file halite.save/

     init_run     :      5.02s CPU      5.09s WALL (       1 calls)
     electrons    :     48.20s CPU     48.90s WALL (       1 calls)
     forces       :      1.05s CPU      1.08s WALL (       1 calls)
     stress       :      2.19s CPU      2.27s WALL (       1 calls)

     Called by init_run:
     wfcinit      :      1.72s CPU      1.74s WALL (       1 calls)
     potinit      :      0.74s CPU      0.74s WALL (       1 calls)
     hinit0       :      2.30s CPU      2.31s WALL (       1 calls)

     Called by electrons:
     c_bands      :     35.29s CPU     35.55s WALL (       7 calls)
     sum_band     :      7.48s CPU      7.71s WALL (       7 calls)
     v_of_rho     :      0.69s CPU      0.70s WALL (       7 calls)
     newd         :      1.48s CPU      1.70s WALL (       7 calls)
     PAW_pot      :      4.00s CPU      4.02s WALL (       7 calls)
     mix_rho      :      0.06s CPU      0.06s WALL (       7 calls)

     Called by c_bands:
     init_us_2    :      0.77s CPU      0.78s WALL (     595 calls)
     cegterg      :     34.24s CPU     34.49s WALL (     245 calls)

     Called by sum_band:
     sum_band:bec :      0.01s CPU      0.01s WALL (     245 calls)
     addusdens    :      1.84s CPU      2.02s WALL (       7 calls)

     Called by *egterg:
     h_psi        :     26.19s CPU     26.39s WALL (    1049 calls)
     s_psi        :      2.16s CPU      2.19s WALL (    1049 calls)
     g_psi        :      0.08s CPU      0.08s WALL (     769 calls)
     cdiaghg      :      0.70s CPU      0.70s WALL (     979 calls)

     Called by h_psi:
     h_psi:pot    :     26.13s CPU     26.32s WALL (    1049 calls)
     h_psi:calbec :      2.37s CPU      2.39s WALL (    1049 calls)
     vloc_psi     :     21.58s CPU     21.75s WALL (    1049 calls)
     add_vuspsi   :      2.17s CPU      2.18s WALL (    1049 calls)

     General routines
     calbec       :      3.78s CPU      3.81s WALL (    1469 calls)
     fft          :      0.51s CPU      0.52s WALL (     115 calls)
     ffts         :      0.05s CPU      0.05s WALL (      14 calls)
     fftw         :     22.20s CPU     22.39s WALL (   19364 calls)
     interpolate  :      0.07s CPU      0.07s WALL (       7 calls)

     Parallel routines

     PWSCF        :   1m 0.73s CPU   1m 1.66s WALL


   This run was terminated on:  18:27:20  18Feb2020            

=------------------------------------------------------------------------------=
   JOB DONE.
=------------------------------------------------------------------------------=
