     Message from routine get_command_line:
     unexpected argument # 2     :-input

     Program PWSCF v.6.4.1 starts on 18Feb2020 at 18:14:20 

     This program is part of the open-source Quantum ESPRESSO suite
     for quantum simulation of materials; please cite
         "P. Giannozzi et al., J. Phys.:Condens. Matter 21 395502 (2009);
         "P. Giannozzi et al., J. Phys.:Condens. Matter 29 465901 (2017);
          URL http://www.quantum-espresso.org", 
     in publications or presentations arising from this work. More details at
     http://www.quantum-espresso.org/quote

     Parallel version (MPI), running on     1 processors

     MPI processes distributed on     1 nodes
     Waiting for input...
     Reading input from standard input

     Current dimensions of program PWSCF are:
     Max number of different atomic species (ntypx) = 10
     Max number of k-points (npk) =  40000
     Max angular momentum in pseudopotentials (lmaxx) =  3
     Message from routine volume:
     axis vectors are left-handed

     IMPORTANT: XC functional enforced from input :
     Exchange-correlation      = PBE ( 1  4  3  4 0 0)
     Any further DFT definition will be discarded
     Please, verify this is what you really want

               file Na.pbe-spn-kjpaw_psl.1.0.0.UPF: wavefunction(s)  2P renormalized
               file Cl.pbe-n-kjpaw_psl.1.0.0.UPF: wavefunction(s)  3S 3P renormalized

     Subspace diagonalization in iterative solution of the eigenvalue problem:
     a serial algorithm will be used

     Message from routine setup:
     DEPRECATED: symmetry with ibrav=0, use correct ibrav instead

     G-vector sticks info
     --------------------
     sticks:   dense  smooth     PW     G-vecs:    dense   smooth      PW
     Sum        1285    1039    301                30731    22075    3479



     bravais-lattice index     =            0
     lattice parameter (alat)  =      10.6591  a.u.
     unit-cell volume          =     302.7633 (a.u.)^3
     number of atoms/cell      =            2
     number of atomic types    =            2
     number of electrons       =        16.00
     number of Kohn-Sham states=           12
     kinetic-energy cutoff     =      66.0000  Ry
     charge density cutoff     =     330.0000  Ry
     convergence threshold     =      1.0E-08
     mixing beta               =       0.7000
     number of iterations used =            8  plain     mixing
     Exchange-correlation      = PBE ( 1  4  3  4 0 0)

     celldm(1)=  10.659114  celldm(2)=   0.000000  celldm(3)=   0.000000
     celldm(4)=   0.000000  celldm(5)=   0.000000  celldm(6)=   0.000000

     crystal axes: (cart. coord. in units of alat)
               a(1) = (   0.500000   0.500000   0.000000 )  
               a(2) = (   0.500000   0.000000   0.500000 )  
               a(3) = (   0.000000   0.500000   0.500000 )  

     reciprocal axes: (cart. coord. in units 2 pi/alat)
               b(1) = (  1.000000  1.000000 -1.000000 )  
               b(2) = (  1.000000 -1.000000  1.000000 )  
               b(3) = ( -1.000000  1.000000  1.000000 )  


     PseudoPot. # 1 for Na read from file:
     ./Na.pbe-spn-kjpaw_psl.1.0.0.UPF
     MD5 check sum: 05b4deb74e3932c23ab016979dc8b5d4
     Pseudo is Projector augmented-wave + core cor, Zval =  9.0
     Generated using "atomic" code by A. Dal Corso v.6.3
     Shape of augmentation charge: PSQ
     Using radial grid of 1121 points,  4 beta functions with: 
                l(1) =   0
                l(2) =   0
                l(3) =   1
                l(4) =   1
     Q(r) pseudized with 0 coefficients 


     PseudoPot. # 2 for Cl read from file:
     ./Cl.pbe-n-kjpaw_psl.1.0.0.UPF
     MD5 check sum: 530da96d25dcb7781b0586ca00827062
     Pseudo is Projector augmented-wave + core cor, Zval =  7.0
     Generated using "atomic" code by A. Dal Corso v.6.3
     Shape of augmentation charge: PSQ
     Using radial grid of 1157 points,  6 beta functions with: 
                l(1) =   0
                l(2) =   0
                l(3) =   1
                l(4) =   1
                l(5) =   2
                l(6) =   2
     Q(r) pseudized with 0 coefficients 


     atomic species   valence    mass     pseudopotential
        Na             9.00    22.98900     Na( 1.00)
        Cl             7.00    35.45150     Cl( 1.00)

     48 Sym. Ops., with inversion, found



   Cartesian axes

     site n.     atom                  positions (alat units)
         1           Cl  tau(   1) = (   0.5000000   0.5000000   0.5000000  )
         2           Na  tau(   2) = (   0.0000000   0.0000000   0.0000000  )

     number of k points=    10  Marzari-Vanderbilt smearing, width (Ry)=  0.0050
                       cart. coord. in units 2pi/alat
        k(    1) = (   0.0000000   0.0000000   0.0000000), wk =   0.0160000
        k(    2) = (  -0.2000000   0.2000000   0.2000000), wk =   0.1280000
        k(    3) = (  -0.4000000   0.4000000   0.4000000), wk =   0.1280000
        k(    4) = (   0.0000000   0.0000000   0.4000000), wk =   0.0960000
        k(    5) = (  -0.2000000   0.2000000   0.6000000), wk =   0.3840000
        k(    6) = (   0.6000000  -0.6000000  -0.2000000), wk =   0.3840000
        k(    7) = (   0.4000000  -0.4000000   0.0000000), wk =   0.1920000
        k(    8) = (   0.0000000   0.0000000   0.8000000), wk =   0.0960000
        k(    9) = (   0.8000000  -0.8000000   0.0000000), wk =   0.1920000
        k(   10) = (   1.0000000  -0.6000000  -0.2000000), wk =   0.3840000

     Dense  grid:    30731 G-vectors     FFT dimensions: (  45,  45,  45)

     Smooth grid:    22075 G-vectors     FFT dimensions: (  40,  40,  40)

     Estimated max dynamical RAM per process >     125.71 MB

     Check: negative core charge=   -0.000002

     Initial potential from superposition of free atoms

     starting charge   15.99370, renormalised to   16.00000
     Starting wfcs are    9 randomized atomic wfcs +    3 random wfcs
     Checking if some PAW data can be deallocated... 

     total cpu time spent up to now is        8.7 secs

     Self-consistent Calculation

     iteration #  1     ecut=    66.00 Ry     beta= 0.70
     Davidson diagonalization with overlap
     ethr =  1.00E-02,  avg # of iterations =  6.7

     Threshold (ethr) on eigenvalues was too large:
     Diagonalizing with lowered threshold

     Davidson diagonalization with overlap
     ethr =  3.24E-04,  avg # of iterations =  1.4

     total cpu time spent up to now is       15.5 secs

     total energy              =    -188.82992566 Ry
     Harris-Foulkes estimate   =    -188.86109856 Ry
     estimated scf accuracy    <       0.05088401 Ry

     iteration #  2     ecut=    66.00 Ry     beta= 0.70
     Davidson diagonalization with overlap
     ethr =  3.18E-04,  avg # of iterations =  2.3

     total cpu time spent up to now is       19.2 secs

     total energy              =    -188.84353588 Ry
     Harris-Foulkes estimate   =    -188.85029706 Ry
     estimated scf accuracy    <       0.01239767 Ry

     iteration #  3     ecut=    66.00 Ry     beta= 0.70
     Davidson diagonalization with overlap
     ethr =  7.75E-05,  avg # of iterations =  2.5

     total cpu time spent up to now is       22.9 secs

     total energy              =    -188.84636298 Ry
     Harris-Foulkes estimate   =    -188.84624239 Ry
     estimated scf accuracy    <       0.00026353 Ry

     iteration #  4     ecut=    66.00 Ry     beta= 0.70
     Davidson diagonalization with overlap
     ethr =  1.65E-06,  avg # of iterations =  3.7

     total cpu time spent up to now is       27.2 secs

     total energy              =    -188.84641531 Ry
     Harris-Foulkes estimate   =    -188.84641326 Ry
     estimated scf accuracy    <       0.00000114 Ry

     iteration #  5     ecut=    66.00 Ry     beta= 0.70
     Davidson diagonalization with overlap
     ethr =  7.12E-09,  avg # of iterations =  3.3

     total cpu time spent up to now is       31.5 secs

     total energy              =    -188.84641644 Ry
     Harris-Foulkes estimate   =    -188.84641648 Ry
     estimated scf accuracy    <       0.00000008 Ry

     iteration #  6     ecut=    66.00 Ry     beta= 0.70
     Davidson diagonalization with overlap
     ethr =  4.91E-10,  avg # of iterations =  3.0

     total cpu time spent up to now is       35.7 secs

     total energy              =    -188.84641647 Ry
     Harris-Foulkes estimate   =    -188.84641649 Ry
     estimated scf accuracy    <       0.00000005 Ry

     iteration #  7     ecut=    66.00 Ry     beta= 0.70
     Davidson diagonalization with overlap
     ethr =  3.20E-10,  avg # of iterations =  3.0

     total cpu time spent up to now is       39.4 secs

     End of self-consistent calculation

          k = 0.0000 0.0000 0.0000 (  2733 PWs)   bands (ev):

   -47.9544 -19.8643 -19.8643 -19.8643 -11.6950   0.9616   0.9616   0.9616
     6.0633  11.9992  11.9992  11.9992

          k =-0.2000 0.2000 0.2000 (  2740 PWs)   bands (ev):

   -47.9541 -19.8746 -19.8651 -19.8651 -11.5839   0.1635   0.8670   0.8670
     7.1485  11.0830  12.3132  12.3132

          k =-0.4000 0.4000 0.4000 (  2743 PWs)   bands (ev):

   -47.9537 -19.8906 -19.8664 -19.8664 -11.3947  -0.8137   0.7223   0.7223
     8.1717  11.3081  11.9557  11.9557

          k = 0.0000 0.0000 0.4000 (  2750 PWs)   bands (ev):

   -47.9541 -19.8736 -19.8672 -19.8672 -11.5538   0.1580   0.7390   0.7390
     7.5065  10.4808  12.2697  12.8859

          k =-0.2000 0.2000 0.6000 (  2747 PWs)   bands (ev):

   -47.9537 -19.8842 -19.8694 -19.8689 -11.4014  -0.5021   0.4707   0.5904
     8.7228  10.2266  11.1972  12.9340

          k = 0.6000-0.6000-0.2000 (  2754 PWs)   bands (ev):

   -47.9535 -19.8884 -19.8725 -19.8679 -11.3360  -0.7083   0.2165   0.6179
     9.1253  10.6419  11.2664  12.5427

          k = 0.4000-0.4000 0.0000 (  2742 PWs)   bands (ev):

   -47.9538 -19.8819 -19.8703 -19.8655 -11.4525  -0.3237   0.4354   0.7869
     8.4227  10.5890  11.5335  12.7441

          k = 0.0000 0.0000 0.8000 (  2750 PWs)   bands (ev):

   -47.9535 -19.8833 -19.8718 -19.8718 -11.3459  -0.6044   0.4181   0.4181
     8.5871   9.1820  11.8209  14.9745

          k = 0.8000-0.8000 0.0000 (  2738 PWs)   bands (ev):

   -47.9534 -19.8821 -19.8771 -19.8711 -11.3054  -0.5287  -0.0041   0.4336
     8.9805   9.6805  11.7363  14.0207

          k = 1.0000-0.6000-0.2000 (  2727 PWs)   bands (ev):

   -47.9534 -19.8825 -19.8755 -19.8711 -11.3174  -0.4587   0.0113   0.3821
     9.7299  10.2192  10.5842  13.0106

     the Fermi energy is     3.2604 ev

!    total energy              =    -188.84641648 Ry
     Harris-Foulkes estimate   =    -188.84641648 Ry
     estimated scf accuracy    <          1.2E-09 Ry

     total all-electron energy =     -1248.133431 Ry

     The total energy is the sum of the following terms:

     one-electron contribution =     -80.91308834 Ry
     hartree contribution      =      47.14084708 Ry
     xc contribution           =     -25.67400798 Ry
     ewald contribution        =     -68.79919271 Ry
     one-center paw contrib.   =     -60.60097454 Ry
     smearing contrib. (-TS)   =       0.00000000 Ry

     convergence has been achieved in   7 iterations

     Forces acting on atoms (cartesian axes, Ry/au):

     atom    1 type  2   force =     0.00000000    0.00000000    0.00000000
     atom    2 type  1   force =     0.00000000    0.00000000    0.00000000

     Total force =     0.000000     Total SCF correction =     0.000000


     Computing stress (Cartesian axis) and pressure

          total   stress  (Ry/bohr**3)                   (kbar)     P=    1.07
   0.00000730  -0.00000000  -0.00000000          1.07     -0.00     -0.00
  -0.00000000   0.00000730  -0.00000000         -0.00      1.07     -0.00
  -0.00000000  -0.00000000   0.00000730         -0.00     -0.00      1.07


     Writing output data file halite.save/

     init_run     :      4.33s CPU      4.41s WALL (       1 calls)
     electrons    :     30.16s CPU     30.79s WALL (       1 calls)
     forces       :      0.81s CPU      0.85s WALL (       1 calls)
     stress       :      1.77s CPU      1.91s WALL (       1 calls)

     Called by init_run:
     wfcinit      :      0.75s CPU      0.75s WALL (       1 calls)
     potinit      :      0.72s CPU      0.75s WALL (       1 calls)
     hinit0       :      2.53s CPU      2.54s WALL (       1 calls)

     Called by electrons:
     c_bands      :     17.45s CPU     17.51s WALL (       8 calls)
     sum_band     :      6.03s CPU      6.32s WALL (       8 calls)
     v_of_rho     :      0.80s CPU      0.81s WALL (       8 calls)
     newd         :      2.07s CPU      2.39s WALL (       8 calls)
     PAW_pot      :      4.54s CPU      4.56s WALL (       8 calls)
     mix_rho      :      0.09s CPU      0.09s WALL (       8 calls)

     Called by c_bands:
     init_us_2    :      0.32s CPU      0.32s WALL (     190 calls)
     cegterg      :     17.00s CPU     17.06s WALL (      80 calls)

     Called by sum_band:
     sum_band:bec :      0.00s CPU      0.00s WALL (      80 calls)
     addusdens    :      2.65s CPU      2.94s WALL (       8 calls)

     Called by *egterg:
     h_psi        :     13.63s CPU     13.68s WALL (     349 calls)
     s_psi        :      0.92s CPU      0.92s WALL (     349 calls)
     g_psi        :      0.03s CPU      0.03s WALL (     259 calls)
     cdiaghg      :      0.23s CPU      0.23s WALL (     329 calls)

     Called by h_psi:
     h_psi:pot    :     13.61s CPU     13.66s WALL (     349 calls)
     h_psi:calbec :      1.01s CPU      1.01s WALL (     349 calls)
     vloc_psi     :     11.67s CPU     11.72s WALL (     349 calls)
     add_vuspsi   :      0.92s CPU      0.93s WALL (     349 calls)

     General routines
     calbec       :      1.59s CPU      1.59s WALL (     479 calls)
     fft          :      0.56s CPU      0.57s WALL (     128 calls)
     ffts         :      0.07s CPU      0.07s WALL (      16 calls)
     fftw         :     12.69s CPU     12.74s WALL (    6390 calls)
     interpolate  :      0.09s CPU      0.10s WALL (       8 calls)

     Parallel routines

     PWSCF        :     41.35s CPU     42.27s WALL


   This run was terminated on:  18:15: 2  18Feb2020            

=------------------------------------------------------------------------------=
   JOB DONE.
=------------------------------------------------------------------------------=
