     Message from routine get_command_line:
     unexpected argument # 2     :-input

     Program PWSCF v.6.4.1 starts on 18Feb2020 at  8: 3:48 

     This program is part of the open-source Quantum ESPRESSO suite
     for quantum simulation of materials; please cite
         "P. Giannozzi et al., J. Phys.:Condens. Matter 21 395502 (2009);
         "P. Giannozzi et al., J. Phys.:Condens. Matter 29 465901 (2017);
          URL http://www.quantum-espresso.org", 
     in publications or presentations arising from this work. More details at
     http://www.quantum-espresso.org/quote

     Parallel version (MPI), running on     1 processors

     MPI processes distributed on     1 nodes
     Waiting for input...
     Reading input from standard input

     Current dimensions of program PWSCF are:
     Max number of different atomic species (ntypx) = 10
     Max number of k-points (npk) =  40000
     Max angular momentum in pseudopotentials (lmaxx) =  3
     Message from routine volume:
     axis vectors are left-handed

     IMPORTANT: XC functional enforced from input :
     Exchange-correlation      = PBE ( 1  4  3  4 0 0)
     Any further DFT definition will be discarded
     Please, verify this is what you really want

               file Na.pbe-spn-kjpaw_psl.1.0.0.UPF: wavefunction(s)  2P renormalized
               file Cl.pbe-n-kjpaw_psl.1.0.0.UPF: wavefunction(s)  3S 3P renormalized

     Subspace diagonalization in iterative solution of the eigenvalue problem:
     a serial algorithm will be used

     Message from routine setup:
     DEPRECATED: symmetry with ibrav=0, use correct ibrav instead

     G-vector sticks info
     --------------------
     sticks:   dense  smooth     PW     G-vecs:    dense   smooth      PW
     Sum         313     253     85                 3695     2685     537



     bravais-lattice index     =            0
     lattice parameter (alat)  =      10.6591  a.u.
     unit-cell volume          =     302.7633 (a.u.)^3
     number of atoms/cell      =            2
     number of atomic types    =            2
     number of electrons       =        16.00
     number of Kohn-Sham states=           12
     kinetic-energy cutoff     =      16.0000  Ry
     charge density cutoff     =      80.0000  Ry
     convergence threshold     =      1.0E-08
     mixing beta               =       0.7000
     number of iterations used =            8  plain     mixing
     Exchange-correlation      = PBE ( 1  4  3  4 0 0)

     celldm(1)=  10.659114  celldm(2)=   0.000000  celldm(3)=   0.000000
     celldm(4)=   0.000000  celldm(5)=   0.000000  celldm(6)=   0.000000

     crystal axes: (cart. coord. in units of alat)
               a(1) = (   0.500000   0.500000   0.000000 )  
               a(2) = (   0.500000   0.000000   0.500000 )  
               a(3) = (   0.000000   0.500000   0.500000 )  

     reciprocal axes: (cart. coord. in units 2 pi/alat)
               b(1) = (  1.000000  1.000000 -1.000000 )  
               b(2) = (  1.000000 -1.000000  1.000000 )  
               b(3) = ( -1.000000  1.000000  1.000000 )  


     PseudoPot. # 1 for Na read from file:
     ./Na.pbe-spn-kjpaw_psl.1.0.0.UPF
     MD5 check sum: 05b4deb74e3932c23ab016979dc8b5d4
     Pseudo is Projector augmented-wave + core cor, Zval =  9.0
     Generated using "atomic" code by A. Dal Corso v.6.3
     Shape of augmentation charge: PSQ
     Using radial grid of 1121 points,  4 beta functions with: 
                l(1) =   0
                l(2) =   0
                l(3) =   1
                l(4) =   1
     Q(r) pseudized with 0 coefficients 


     PseudoPot. # 2 for Cl read from file:
     ./Cl.pbe-n-kjpaw_psl.1.0.0.UPF
     MD5 check sum: 530da96d25dcb7781b0586ca00827062
     Pseudo is Projector augmented-wave + core cor, Zval =  7.0
     Generated using "atomic" code by A. Dal Corso v.6.3
     Shape of augmentation charge: PSQ
     Using radial grid of 1157 points,  6 beta functions with: 
                l(1) =   0
                l(2) =   0
                l(3) =   1
                l(4) =   1
                l(5) =   2
                l(6) =   2
     Q(r) pseudized with 0 coefficients 


     atomic species   valence    mass     pseudopotential
        Na             9.00    22.98900     Na( 1.00)
        Cl             7.00    35.45150     Cl( 1.00)

     48 Sym. Ops., with inversion, found



   Cartesian axes

     site n.     atom                  positions (alat units)
         1           Cl  tau(   1) = (   0.5000000   0.5000000   0.5000000  )
         2           Na  tau(   2) = (   0.0000000   0.0000000   0.0000000  )

     number of k points=    20  Marzari-Vanderbilt smearing, width (Ry)=  0.0050
                       cart. coord. in units 2pi/alat
        k(    1) = (   0.0000000   0.0000000   0.0000000), wk =   0.0058309
        k(    2) = (  -0.1428571   0.1428571   0.1428571), wk =   0.0466472
        k(    3) = (  -0.2857143   0.2857143   0.2857143), wk =   0.0466472
        k(    4) = (  -0.4285714   0.4285714   0.4285714), wk =   0.0466472
        k(    5) = (   0.0000000   0.0000000   0.2857143), wk =   0.0349854
        k(    6) = (  -0.1428571   0.1428571   0.4285714), wk =   0.1399417
        k(    7) = (  -0.2857143   0.2857143   0.5714286), wk =   0.1399417
        k(    8) = (   0.5714286  -0.5714286  -0.2857143), wk =   0.1399417
        k(    9) = (   0.4285714  -0.4285714  -0.1428571), wk =   0.1399417
        k(   10) = (   0.2857143  -0.2857143  -0.0000000), wk =   0.0699708
        k(   11) = (   0.0000000   0.0000000   0.5714286), wk =   0.0349854
        k(   12) = (  -0.1428571   0.1428571   0.7142857), wk =   0.1399417
        k(   13) = (   0.7142857  -0.7142857  -0.1428571), wk =   0.1399417
        k(   14) = (   0.5714286  -0.5714286   0.0000000), wk =   0.0699708
        k(   15) = (   0.0000000   0.0000000   0.8571429), wk =   0.0349854
        k(   16) = (   0.8571429  -0.8571429  -0.0000000), wk =   0.0699708
        k(   17) = (   0.0000000   0.2857143   0.5714286), wk =   0.1399417
        k(   18) = (   0.8571429  -0.5714286  -0.2857143), wk =   0.2798834
        k(   19) = (   1.0000000  -0.7142857  -0.1428571), wk =   0.1399417
        k(   20) = (   0.8571429  -0.5714286   0.0000000), wk =   0.1399417

     Dense  grid:     3695 G-vectors     FFT dimensions: (  24,  24,  24)

     Smooth grid:     2685 G-vectors     FFT dimensions: (  20,  20,  20)

     Estimated max dynamical RAM per process >      17.75 MB

     Check: negative core charge=   -0.000109

     Initial potential from superposition of free atoms

     starting charge   15.99370, renormalised to   16.00000
     Starting wfcs are    9 randomized atomic wfcs +    3 random wfcs
     Checking if some PAW data can be deallocated... 

     total cpu time spent up to now is        8.1 secs

     Self-consistent Calculation

     iteration #  1     ecut=    16.00 Ry     beta= 0.70
     Davidson diagonalization with overlap
     ethr =  1.00E-02,  avg # of iterations =  5.5

     negative rho (up, down):  3.640E-03 0.000E+00

     total cpu time spent up to now is        9.4 secs

     total energy              =    -184.17016036 Ry
     Harris-Foulkes estimate   =    -185.08538382 Ry
     estimated scf accuracy    <       1.25580287 Ry

     iteration #  2     ecut=    16.00 Ry     beta= 0.70
     Davidson diagonalization with overlap
     ethr =  7.85E-03,  avg # of iterations =  2.0

     negative rho (up, down):  1.645E-02 0.000E+00

     total cpu time spent up to now is       10.4 secs

     total energy              =    -184.52813458 Ry
     Harris-Foulkes estimate   =    -184.58382317 Ry
     estimated scf accuracy    <       0.08495652 Ry

     iteration #  3     ecut=    16.00 Ry     beta= 0.70
     Davidson diagonalization with overlap
     ethr =  5.31E-04,  avg # of iterations =  2.1

     negative rho (up, down):  2.708E-02 0.000E+00

     total cpu time spent up to now is       11.4 secs

     total energy              =    -184.54463829 Ry
     Harris-Foulkes estimate   =    -184.54656997 Ry
     estimated scf accuracy    <       0.00380926 Ry

     iteration #  4     ecut=    16.00 Ry     beta= 0.70
     Davidson diagonalization with overlap
     ethr =  2.38E-05,  avg # of iterations =  2.9

     negative rho (up, down):  3.190E-02 0.000E+00

     total cpu time spent up to now is       12.5 secs

     total energy              =    -184.54528166 Ry
     Harris-Foulkes estimate   =    -184.54540759 Ry
     estimated scf accuracy    <       0.00040676 Ry

     iteration #  5     ecut=    16.00 Ry     beta= 0.70
     Davidson diagonalization with overlap
     ethr =  2.54E-06,  avg # of iterations =  2.4

     negative rho (up, down):  3.183E-02 0.000E+00

     total cpu time spent up to now is       13.5 secs

     total energy              =    -184.54532178 Ry
     Harris-Foulkes estimate   =    -184.54532639 Ry
     estimated scf accuracy    <       0.00001129 Ry

     iteration #  6     ecut=    16.00 Ry     beta= 0.70
     Davidson diagonalization with overlap
     ethr =  7.06E-08,  avg # of iterations =  2.0

     negative rho (up, down):  3.191E-02 0.000E+00

     total cpu time spent up to now is       14.5 secs

     total energy              =    -184.54532515 Ry
     Harris-Foulkes estimate   =    -184.54532444 Ry
     estimated scf accuracy    <       0.00000005 Ry

     iteration #  7     ecut=    16.00 Ry     beta= 0.70
     Davidson diagonalization with overlap
     ethr =  3.08E-10,  avg # of iterations =  2.1

     negative rho (up, down):  3.196E-02 0.000E+00

     total cpu time spent up to now is       15.5 secs

     End of self-consistent calculation

          k = 0.0000 0.0000 0.0000 (   331 PWs)   bands (ev):

   -57.3279 -20.1795 -20.1795 -20.1795 -11.9648   0.9183   0.9183   0.9183
     5.2273  11.6863  11.6863  11.6863

          k =-0.1429 0.1429 0.1429 (   326 PWs)   bands (ev):

   -57.2568 -20.0295 -20.0295 -19.2185 -11.9035   0.4043   0.8692   0.8692
     5.9054  10.9177  11.9161  11.9161

          k =-0.2857 0.2857 0.2857 (   320 PWs)   bands (ev):

   -57.1625 -19.3351 -19.3351 -18.9851 -11.7589  -0.4866   0.7655   0.7655
     7.0038  10.3750  11.8955  11.8955

          k =-0.4286 0.4286 0.4286 (   329 PWs)   bands (ev):

   -57.2389 -19.8374 -19.8374 -19.7651 -11.6424  -1.0852   0.6718   0.6718
     7.4002  10.8184  11.5426  11.5426

          k = 0.0000 0.0000 0.2857 (   331 PWs)   bands (ev):

   -57.3030 -20.3347 -20.3347 -19.6560 -11.8870   0.3708   0.7761   0.7761
     6.1327  10.5352  12.1175  12.1176

          k =-0.1429 0.1429 0.4286 (   329 PWs)   bands (ev):

   -57.2643 -20.3127 -19.7452 -19.6226 -11.7741  -0.2778   0.6569   0.6580
     7.1373   9.9312  11.4613  12.3965

          k =-0.2857 0.2857 0.5714 (   326 PWs)   bands (ev):

   -57.2144 -19.7546 -19.6506 -19.4741 -11.6499  -0.8638   0.4744   0.5808
     7.8517  10.2350  10.8909  12.0767

          k = 0.5714-0.5714-0.2857 (   328 PWs)   bands (ev):

   -57.2235 -20.1178 -19.7453 -19.3316 -11.6120  -1.0382   0.3513   0.6057
     7.9381  10.5998  10.8935  11.8779

          k = 0.4286-0.4286-0.1429 (   323 PWs)   bands (ev):

   -57.1862 -19.5675 -19.5603 -19.0994 -11.6858  -0.6885   0.4093   0.7269
     7.7551  10.1858  11.1039  12.0669

          k = 0.2857-0.2857-0.0000 (   319 PWs)   bands (ev):

   -57.1723 -19.3426 -19.2619 -18.9870 -11.8157  -0.0684   0.6302   0.8540
     6.7653  10.3019  11.8167  12.4149

          k = 0.0000 0.0000 0.5714 (   323 PWs)   bands (ev):

   -57.1987 -19.7348 -19.2989 -19.2989 -11.7128  -0.4325   0.5205   0.5205
     7.6939   9.2132  10.9972  13.3243

          k =-0.1429 0.1429 0.7143 (   327 PWs)   bands (ev):

   -57.2296 -19.8554 -19.8143 -19.4867 -11.6253  -0.7221   0.2482   0.4196
     8.2891   9.1034  10.6427  13.3347

          k = 0.7143-0.7143-0.1429 (   332 PWs)   bands (ev):

   -57.2563 -20.0864 -19.9803 -19.9535 -11.5757  -0.7308  -0.1559   0.4349
     8.6470   9.7207  10.5345  12.8481

          k = 0.5714-0.5714 0.0000 (   335 PWs)   bands (ev):

   -57.2957 -20.5263 -20.2165 -19.9859 -11.6059  -0.6862  -0.1640   0.5657
     8.7709  10.1277  10.1352  12.4636

          k = 0.0000 0.0000 0.8571 (   326 PWs)   bands (ev):

   -57.2178 -19.6570 -19.6401 -19.6401 -11.5861  -0.8614   0.3037   0.3037
     8.0503   8.4993  11.2431  14.6000

          k = 0.8571-0.8571-0.0000 (   326 PWs)   bands (ev):

   -57.2042 -19.9761 -19.6127 -19.2056 -11.5634  -0.8095   0.0565   0.3156
     8.2729   8.7884  11.1882  14.0530

          k = 0.0000 0.2857 0.5714 (   324 PWs)   bands (ev):

   -57.2028 -19.5836 -19.5292 -19.4110 -11.6750  -0.5858   0.2850   0.5930
     8.1284   9.5927  10.6826  12.7748

          k = 0.8571-0.5714-0.2857 (   328 PWs)   bands (ev):

   -57.2244 -20.1527 -19.6835 -19.3775 -11.5956  -0.7825   0.0120   0.4660
     8.7424   9.9762  10.2173  12.4330

          k = 1.0000-0.7143-0.1429 (   326 PWs)   bands (ev):

   -57.2004 -19.7859 -19.7219 -19.3091 -11.5732  -0.7071   0.0295   0.2454
     8.7359   9.0922  10.6181  12.9920

          k = 0.8571-0.5714 0.0000 (   327 PWs)   bands (ev):

   -57.2027 -19.7553 -19.5872 -19.5828 -11.5590  -0.4439  -0.3912   0.2631
     9.2148   9.6635  10.3131  12.0997

     the Fermi energy is     0.9330 ev

!    total energy              =    -184.54532559 Ry
     Harris-Foulkes estimate   =    -184.54532516 Ry
     estimated scf accuracy    <          2.1E-09 Ry

     total all-electron energy =     -1243.832341 Ry

     The total energy is the sum of the following terms:

     one-electron contribution =     -71.83974447 Ry
     hartree contribution      =      41.29156751 Ry
     xc contribution           =     -24.75212106 Ry
     ewald contribution        =     -68.79919274 Ry
     one-center paw contrib.   =     -60.44594919 Ry
     smearing contrib. (-TS)   =       0.00011435 Ry

     convergence has been achieved in   7 iterations

     negative rho (up, down):  3.196E-02 0.000E+00

     Forces acting on atoms (cartesian axes, Ry/au):

     atom    1 type  2   force =     0.00000000    0.00000000    0.00000000
     atom    2 type  1   force =    -0.00000000    0.00000000    0.00000000

     Total force =     0.000000     Total SCF correction =     0.000000


     Computing stress (Cartesian axis) and pressure


     negative rho (up, down):  3.196E-02 0.000E+00
          total   stress  (Ry/bohr**3)                   (kbar)     P= -5324.43
  -0.03619472  -0.00000000  -0.00000000      -5324.43     -0.00     -0.00
  -0.00000000  -0.03619472  -0.00000000         -0.00  -5324.43     -0.00
  -0.00000000  -0.00000000  -0.03619472         -0.00     -0.00  -5324.43


     Writing output data file halite.save/

     init_run     :      2.18s CPU      3.10s WALL (       1 calls)
     electrons    :      7.30s CPU      7.50s WALL (       1 calls)
     forces       :      0.14s CPU      0.14s WALL (       1 calls)
     stress       :      0.32s CPU      0.32s WALL (       1 calls)

     Called by init_run:
     wfcinit      :      0.11s CPU      0.16s WALL (       1 calls)
     potinit      :      0.71s CPU      1.01s WALL (       1 calls)
     hinit0       :      1.27s CPU      1.43s WALL (       1 calls)

     Called by electrons:
     c_bands      :      2.26s CPU      2.33s WALL (       7 calls)
     sum_band     :      0.60s CPU      0.61s WALL (       7 calls)
     v_of_rho     :      0.11s CPU      0.24s WALL (       8 calls)
     newd         :      0.26s CPU      0.27s WALL (       8 calls)
     PAW_pot      :      4.75s CPU      4.89s WALL (       8 calls)
     mix_rho      :      0.01s CPU      0.01s WALL (       7 calls)

     Called by c_bands:
     init_us_2    :      0.09s CPU      0.09s WALL (     340 calls)
     cegterg      :      2.15s CPU      2.21s WALL (     140 calls)

     Called by sum_band:
     sum_band:bec :      0.01s CPU      0.01s WALL (     140 calls)
     addusdens    :      0.29s CPU      0.30s WALL (       7 calls)

     Called by *egterg:
     h_psi        :      1.12s CPU      1.16s WALL (     541 calls)
     s_psi        :      0.21s CPU      0.21s WALL (     541 calls)
     g_psi        :      0.01s CPU      0.01s WALL (     381 calls)
     cdiaghg      :      0.32s CPU      0.38s WALL (     521 calls)

     Called by h_psi:
     h_psi:pot    :      1.12s CPU      1.15s WALL (     541 calls)
     h_psi:calbec :      0.22s CPU      0.23s WALL (     541 calls)
     vloc_psi     :      0.69s CPU      0.71s WALL (     541 calls)
     add_vuspsi   :      0.20s CPU      0.21s WALL (     541 calls)

     General routines
     calbec       :      0.36s CPU      0.36s WALL (     781 calls)
     fft          :      0.09s CPU      0.21s WALL (     127 calls)
     ffts         :      0.00s CPU      0.00s WALL (      15 calls)
     fftw         :      0.48s CPU      0.49s WALL (   10442 calls)
     interpolate  :      0.01s CPU      0.01s WALL (       8 calls)

     Parallel routines

     PWSCF        :     14.35s CPU     16.35s WALL


   This run was terminated on:   8: 4: 5  18Feb2020            

=------------------------------------------------------------------------------=
   JOB DONE.
=------------------------------------------------------------------------------=
