     Message from routine get_command_line:
     unexpected argument # 2     :-input

     Program PWSCF v.6.4.1 starts on 18Feb2020 at  8: 5:45 

     This program is part of the open-source Quantum ESPRESSO suite
     for quantum simulation of materials; please cite
         "P. Giannozzi et al., J. Phys.:Condens. Matter 21 395502 (2009);
         "P. Giannozzi et al., J. Phys.:Condens. Matter 29 465901 (2017);
          URL http://www.quantum-espresso.org", 
     in publications or presentations arising from this work. More details at
     http://www.quantum-espresso.org/quote

     Parallel version (MPI), running on     1 processors

     MPI processes distributed on     1 nodes
     Waiting for input...
     Reading input from standard input

     Current dimensions of program PWSCF are:
     Max number of different atomic species (ntypx) = 10
     Max number of k-points (npk) =  40000
     Max angular momentum in pseudopotentials (lmaxx) =  3
     Message from routine volume:
     axis vectors are left-handed

     IMPORTANT: XC functional enforced from input :
     Exchange-correlation      = PBE ( 1  4  3  4 0 0)
     Any further DFT definition will be discarded
     Please, verify this is what you really want

               file Na.pbe-spn-kjpaw_psl.1.0.0.UPF: wavefunction(s)  2P renormalized
               file Cl.pbe-n-kjpaw_psl.1.0.0.UPF: wavefunction(s)  3S 3P renormalized

     Subspace diagonalization in iterative solution of the eigenvalue problem:
     a serial algorithm will be used

     Message from routine setup:
     DEPRECATED: symmetry with ibrav=0, use correct ibrav instead

     G-vector sticks info
     --------------------
     sticks:   dense  smooth     PW     G-vecs:    dense   smooth      PW
     Sum        1099     871    253                23973    17153    2741



     bravais-lattice index     =            0
     lattice parameter (alat)  =      10.6591  a.u.
     unit-cell volume          =     302.7633 (a.u.)^3
     number of atoms/cell      =            2
     number of atomic types    =            2
     number of electrons       =        16.00
     number of Kohn-Sham states=           12
     kinetic-energy cutoff     =      56.0000  Ry
     charge density cutoff     =     280.0000  Ry
     convergence threshold     =      1.0E-08
     mixing beta               =       0.7000
     number of iterations used =            8  plain     mixing
     Exchange-correlation      = PBE ( 1  4  3  4 0 0)

     celldm(1)=  10.659114  celldm(2)=   0.000000  celldm(3)=   0.000000
     celldm(4)=   0.000000  celldm(5)=   0.000000  celldm(6)=   0.000000

     crystal axes: (cart. coord. in units of alat)
               a(1) = (   0.500000   0.500000   0.000000 )  
               a(2) = (   0.500000   0.000000   0.500000 )  
               a(3) = (   0.000000   0.500000   0.500000 )  

     reciprocal axes: (cart. coord. in units 2 pi/alat)
               b(1) = (  1.000000  1.000000 -1.000000 )  
               b(2) = (  1.000000 -1.000000  1.000000 )  
               b(3) = ( -1.000000  1.000000  1.000000 )  


     PseudoPot. # 1 for Na read from file:
     ./Na.pbe-spn-kjpaw_psl.1.0.0.UPF
     MD5 check sum: 05b4deb74e3932c23ab016979dc8b5d4
     Pseudo is Projector augmented-wave + core cor, Zval =  9.0
     Generated using "atomic" code by A. Dal Corso v.6.3
     Shape of augmentation charge: PSQ
     Using radial grid of 1121 points,  4 beta functions with: 
                l(1) =   0
                l(2) =   0
                l(3) =   1
                l(4) =   1
     Q(r) pseudized with 0 coefficients 


     PseudoPot. # 2 for Cl read from file:
     ./Cl.pbe-n-kjpaw_psl.1.0.0.UPF
     MD5 check sum: 530da96d25dcb7781b0586ca00827062
     Pseudo is Projector augmented-wave + core cor, Zval =  7.0
     Generated using "atomic" code by A. Dal Corso v.6.3
     Shape of augmentation charge: PSQ
     Using radial grid of 1157 points,  6 beta functions with: 
                l(1) =   0
                l(2) =   0
                l(3) =   1
                l(4) =   1
                l(5) =   2
                l(6) =   2
     Q(r) pseudized with 0 coefficients 


     atomic species   valence    mass     pseudopotential
        Na             9.00    22.98900     Na( 1.00)
        Cl             7.00    35.45150     Cl( 1.00)

     48 Sym. Ops., with inversion, found



   Cartesian axes

     site n.     atom                  positions (alat units)
         1           Cl  tau(   1) = (   0.5000000   0.5000000   0.5000000  )
         2           Na  tau(   2) = (   0.0000000   0.0000000   0.0000000  )

     number of k points=    20  Marzari-Vanderbilt smearing, width (Ry)=  0.0050
                       cart. coord. in units 2pi/alat
        k(    1) = (   0.0000000   0.0000000   0.0000000), wk =   0.0058309
        k(    2) = (  -0.1428571   0.1428571   0.1428571), wk =   0.0466472
        k(    3) = (  -0.2857143   0.2857143   0.2857143), wk =   0.0466472
        k(    4) = (  -0.4285714   0.4285714   0.4285714), wk =   0.0466472
        k(    5) = (   0.0000000   0.0000000   0.2857143), wk =   0.0349854
        k(    6) = (  -0.1428571   0.1428571   0.4285714), wk =   0.1399417
        k(    7) = (  -0.2857143   0.2857143   0.5714286), wk =   0.1399417
        k(    8) = (   0.5714286  -0.5714286  -0.2857143), wk =   0.1399417
        k(    9) = (   0.4285714  -0.4285714  -0.1428571), wk =   0.1399417
        k(   10) = (   0.2857143  -0.2857143  -0.0000000), wk =   0.0699708
        k(   11) = (   0.0000000   0.0000000   0.5714286), wk =   0.0349854
        k(   12) = (  -0.1428571   0.1428571   0.7142857), wk =   0.1399417
        k(   13) = (   0.7142857  -0.7142857  -0.1428571), wk =   0.1399417
        k(   14) = (   0.5714286  -0.5714286   0.0000000), wk =   0.0699708
        k(   15) = (   0.0000000   0.0000000   0.8571429), wk =   0.0349854
        k(   16) = (   0.8571429  -0.8571429  -0.0000000), wk =   0.0699708
        k(   17) = (   0.0000000   0.2857143   0.5714286), wk =   0.1399417
        k(   18) = (   0.8571429  -0.5714286  -0.2857143), wk =   0.2798834
        k(   19) = (   1.0000000  -0.7142857  -0.1428571), wk =   0.1399417
        k(   20) = (   0.8571429  -0.5714286   0.0000000), wk =   0.1399417

     Dense  grid:    23973 G-vectors     FFT dimensions: (  45,  45,  45)

     Smooth grid:    17153 G-vectors     FFT dimensions: (  36,  36,  36)

     Estimated max dynamical RAM per process >     104.07 MB

     Check: negative core charge=   -0.000005

     Initial potential from superposition of free atoms

     starting charge   15.99370, renormalised to   16.00000
     Starting wfcs are    9 randomized atomic wfcs +    3 random wfcs
     Checking if some PAW data can be deallocated... 

     total cpu time spent up to now is        9.0 secs

     Self-consistent Calculation

     iteration #  1     ecut=    56.00 Ry     beta= 0.70
     Davidson diagonalization with overlap
     ethr =  1.00E-02,  avg # of iterations =  6.5

     Threshold (ethr) on eigenvalues was too large:
     Diagonalizing with lowered threshold

     Davidson diagonalization with overlap
     ethr =  3.25E-04,  avg # of iterations =  1.5

     total cpu time spent up to now is       18.1 secs

     total energy              =    -188.82652501 Ry
     Harris-Foulkes estimate   =    -188.85761639 Ry
     estimated scf accuracy    <       0.05113260 Ry

     iteration #  2     ecut=    56.00 Ry     beta= 0.70
     Davidson diagonalization with overlap
     ethr =  3.20E-04,  avg # of iterations =  2.0

     total cpu time spent up to now is       22.5 secs

     total energy              =    -188.84018669 Ry
     Harris-Foulkes estimate   =    -188.84697473 Ry
     estimated scf accuracy    <       0.01244805 Ry

     iteration #  3     ecut=    56.00 Ry     beta= 0.70
     Davidson diagonalization with overlap
     ethr =  7.78E-05,  avg # of iterations =  2.2

     total cpu time spent up to now is       26.8 secs

     total energy              =    -188.84302331 Ry
     Harris-Foulkes estimate   =    -188.84290092 Ry
     estimated scf accuracy    <       0.00026678 Ry

     iteration #  4     ecut=    56.00 Ry     beta= 0.70
     Davidson diagonalization with overlap
     ethr =  1.67E-06,  avg # of iterations =  3.6

     total cpu time spent up to now is       32.4 secs

     total energy              =    -188.84306955 Ry
     Harris-Foulkes estimate   =    -188.84306760 Ry
     estimated scf accuracy    <       0.00000102 Ry

     iteration #  5     ecut=    56.00 Ry     beta= 0.70
     Davidson diagonalization with overlap
     ethr =  6.39E-09,  avg # of iterations =  3.4

     total cpu time spent up to now is       37.5 secs

     total energy              =    -188.84307069 Ry
     Harris-Foulkes estimate   =    -188.84307062 Ry
     estimated scf accuracy    <       0.00000005 Ry

     iteration #  6     ecut=    56.00 Ry     beta= 0.70
     Davidson diagonalization with overlap
     ethr =  3.08E-10,  avg # of iterations =  2.2

     total cpu time spent up to now is       42.0 secs

     End of self-consistent calculation

          k = 0.0000 0.0000 0.0000 (  2109 PWs)   bands (ev):

   -47.9471 -19.8570 -19.8570 -19.8570 -11.6936   0.9635   0.9635   0.9635
     6.0694  12.0004  12.0004  12.0004

          k =-0.1429 0.1429 0.1429 (  2124 PWs)   bands (ev):

   -47.9470 -19.8628 -19.8574 -19.8574 -11.6336   0.4996   0.9113   0.9113
     6.6975  11.3780  12.2329  12.2329

          k =-0.2857 0.2857 0.2857 (  2139 PWs)   bands (ev):

   -47.9468 -19.8751 -19.8585 -19.8585 -11.4942  -0.3303   0.7986   0.7986
     7.7820  10.9297  12.2178  12.2178

          k =-0.4286 0.4286 0.4286 (  2129 PWs)   bands (ev):

   -47.9464 -19.8848 -19.8592 -19.8592 -11.3772  -0.8826   0.7122   0.7122
     8.2122  11.4387  11.9265  11.9265

          k = 0.0000 0.0000 0.2857 (  2129 PWs)   bands (ev):

   -47.9470 -19.8623 -19.8587 -19.8587 -11.6156   0.4769   0.8396   0.8396
     6.9021  11.0291  12.4706  12.4706

          k =-0.1429 0.1429 0.4286 (  2128 PWs)   bands (ev):

   -47.9467 -19.8710 -19.8600 -19.8595 -11.5072  -0.1185   0.7133   0.7178
     7.8823  10.4885  11.9148  12.7335

          k =-0.2857 0.2857 0.5714 (  2131 PWs)   bands (ev):

   -47.9464 -19.8805 -19.8611 -19.8605 -11.3857  -0.6708   0.5386   0.6382
     8.6092  10.7861  11.3561  12.4423

          k = 0.5714-0.5714-0.2857 (  2144 PWs)   bands (ev):

   -47.9464 -19.8836 -19.8625 -19.8599 -11.3459  -0.8254   0.4298   0.6550
     8.7469  11.0009  11.5024  12.2458

          k = 0.4286-0.4286-0.1429 (  2144 PWs)   bands (ev):

   -47.9466 -19.8779 -19.8625 -19.8587 -11.4207  -0.5133   0.4768   0.7572
     8.5112  10.7760  11.5018  12.4140

          k = 0.2857-0.2857-0.0000 (  2129 PWs)   bands (ev):

   -47.9468 -19.8686 -19.8603 -19.8575 -11.5489   0.0617   0.6896   0.8730
     7.5147  10.8425  12.1406  12.6850

          k = 0.0000 0.0000 0.5714 (  2149 PWs)   bands (ev):

   -47.9466 -19.8716 -19.8622 -19.8622 -11.4502  -0.2595   0.5831   0.5831
     8.3442   9.7839  11.5554  13.7013

          k =-0.1429 0.1429 0.7143 (  2135 PWs)   bands (ev):

   -47.9464 -19.8759 -19.8645 -19.8630 -11.3643  -0.5216   0.3498   0.4965
     8.8784   9.6786  11.2802  13.7046

          k = 0.7143-0.7143-0.1429 (  2152 PWs)   bands (ev):

   -47.9463 -19.8774 -19.8688 -19.8623 -11.3147  -0.5373  -0.0172   0.5160
     9.2989  10.2007  11.2282  13.2390

          k = 0.5714-0.5714 0.0000 (  2141 PWs)   bands (ev):

   -47.9464 -19.8775 -19.8685 -19.8603 -11.3403  -0.4914  -0.0148   0.6292
     9.5459  10.5278  10.7910  12.8704

          k = 0.0000 0.0000 0.8571 (  2148 PWs)   bands (ev):

   -47.9463 -19.8768 -19.8649 -19.8649 -11.3288  -0.6461   0.3958   0.3958
     8.5495   9.1019  12.0288  15.3065

          k = 0.8571-0.8571-0.0000 (  2151 PWs)   bands (ev):

   -47.9462 -19.8762 -19.8680 -19.8645 -11.3067  -0.6057   0.1592   0.4041
     8.7803   9.3662  11.9888  14.4911

          k = 0.0000 0.2857 0.5714 (  2136 PWs)   bands (ev):

   -47.9465 -19.8752 -19.8641 -19.8603 -11.4113  -0.4050   0.3827   0.6437
     8.8244  10.1801  11.1340  13.1483

          k = 0.8571-0.5714-0.2857 (  2153 PWs)   bands (ev):

   -47.9464 -19.8787 -19.8665 -19.8620 -11.3324  -0.5846   0.1382   0.5256
     9.4741  10.3825  10.8506  12.8593

          k = 1.0000-0.7143-0.1429 (  2156 PWs)   bands (ev):

   -47.9463 -19.8757 -19.8672 -19.8654 -11.3148  -0.5279   0.1611   0.3318
     9.2089   9.6972  11.3347  13.5207

          k = 0.8571-0.5714 0.0000 (  2156 PWs)   bands (ev):

   -47.9463 -19.8728 -19.8721 -19.8648 -11.3006  -0.2935  -0.2303   0.3494
     9.7087  10.2237  10.9922  12.6912

     the Fermi energy is     3.5314 ev

!    total energy              =    -188.84307071 Ry
     Harris-Foulkes estimate   =    -188.84307071 Ry
     estimated scf accuracy    <          2.4E-09 Ry

     total all-electron energy =     -1248.130086 Ry

     The total energy is the sum of the following terms:

     one-electron contribution =     -80.91204384 Ry
     hartree contribution      =      47.13902574 Ry
     xc contribution           =     -25.67440017 Ry
     ewald contribution        =     -68.79919271 Ry
     one-center paw contrib.   =     -60.59645973 Ry
     smearing contrib. (-TS)   =       0.00000000 Ry

     convergence has been achieved in   6 iterations

     Forces acting on atoms (cartesian axes, Ry/au):

     atom    1 type  2   force =     0.00000000    0.00000000    0.00000000
     atom    2 type  1   force =     0.00000000    0.00000000   -0.00000000

     Total force =     0.000000     Total SCF correction =     0.000000


     Computing stress (Cartesian axis) and pressure

          total   stress  (Ry/bohr**3)                   (kbar)     P=    4.31
   0.00002929   0.00000000   0.00000000          4.31      0.00      0.00
   0.00000000   0.00002929   0.00000000          0.00      4.31      0.00
   0.00000000   0.00000000   0.00002929          0.00      0.00      4.31


     Writing output data file halite.save/

     init_run     :      4.48s CPU      4.56s WALL (       1 calls)
     electrons    :     32.43s CPU     32.98s WALL (       1 calls)
     forces       :      0.85s CPU      0.88s WALL (       1 calls)
     stress       :      1.79s CPU      1.89s WALL (       1 calls)

     Called by init_run:
     wfcinit      :      1.05s CPU      1.06s WALL (       1 calls)
     potinit      :      0.77s CPU      0.77s WALL (       1 calls)
     hinit0       :      2.41s CPU      2.42s WALL (       1 calls)

     Called by electrons:
     c_bands      :     21.33s CPU     21.47s WALL (       7 calls)
     sum_band     :      5.37s CPU      5.61s WALL (       7 calls)
     v_of_rho     :      0.75s CPU      0.75s WALL (       7 calls)
     newd         :      1.49s CPU      1.70s WALL (       7 calls)
     PAW_pot      :      4.26s CPU      4.26s WALL (       7 calls)
     mix_rho      :      0.07s CPU      0.07s WALL (       7 calls)

     Called by c_bands:
     init_us_2    :      0.47s CPU      0.48s WALL (     340 calls)
     cegterg      :     20.69s CPU     20.83s WALL (     140 calls)

     Called by sum_band:
     sum_band:bec :      0.01s CPU      0.01s WALL (     140 calls)
     addusdens    :      1.86s CPU      2.08s WALL (       7 calls)

     Called by *egterg:
     h_psi        :     15.81s CPU     15.93s WALL (     589 calls)
     s_psi        :      1.29s CPU      1.30s WALL (     589 calls)
     g_psi        :      0.05s CPU      0.05s WALL (     429 calls)
     cdiaghg      :      0.40s CPU      0.41s WALL (     549 calls)

     Called by h_psi:
     h_psi:pot    :     15.78s CPU     15.89s WALL (     589 calls)
     h_psi:calbec :      1.45s CPU      1.46s WALL (     589 calls)
     vloc_psi     :     13.02s CPU     13.13s WALL (     589 calls)
     add_vuspsi   :      1.30s CPU      1.31s WALL (     589 calls)

     General routines
     calbec       :      2.30s CPU      2.31s WALL (     829 calls)
     fft          :      0.54s CPU      0.54s WALL (     115 calls)
     ffts         :      0.05s CPU      0.05s WALL (      14 calls)
     fftw         :     13.45s CPU     13.56s WALL (   11054 calls)
     interpolate  :      0.07s CPU      0.07s WALL (       7 calls)

     Parallel routines

     PWSCF        :     44.06s CPU     44.87s WALL


   This run was terminated on:   8: 6:30  18Feb2020            

=------------------------------------------------------------------------------=
   JOB DONE.
=------------------------------------------------------------------------------=
