     Message from routine get_command_line:
     unexpected argument # 2     :-input

     Program PWSCF v.6.4.1 starts on 19Feb2020 at 13:42:56 

     This program is part of the open-source Quantum ESPRESSO suite
     for quantum simulation of materials; please cite
         "P. Giannozzi et al., J. Phys.:Condens. Matter 21 395502 (2009);
         "P. Giannozzi et al., J. Phys.:Condens. Matter 29 465901 (2017);
          URL http://www.quantum-espresso.org", 
     in publications or presentations arising from this work. More details at
     http://www.quantum-espresso.org/quote

     Parallel version (MPI), running on     1 processors

     MPI processes distributed on     1 nodes
     Waiting for input...
     Reading input from standard input

     Current dimensions of program PWSCF are:
     Max number of different atomic species (ntypx) = 10
     Max number of k-points (npk) =  40000
     Max angular momentum in pseudopotentials (lmaxx) =  3
               file Co.pz-nd-rrkjus.UPF: wavefunction(s)  4S 3D renormalized

     Subspace diagonalization in iterative solution of the eigenvalue problem:
     a serial algorithm will be used


     G-vector sticks info
     --------------------
     sticks:   dense  smooth     PW     G-vecs:    dense   smooth      PW
     Sum         301     151     55                 6791     2273     525



     bravais-lattice index     =            4
     lattice parameter (alat)  =       4.1600  a.u.
     unit-cell volume          =     101.8111 (a.u.)^3
     number of atoms/cell      =            2
     number of atomic types    =            1
     number of electrons       =        18.00
     number of Kohn-Sham states=           13
     kinetic-energy cutoff     =      30.0000  Ry
     charge density cutoff     =     250.0000  Ry
     convergence threshold     =      1.0E-08
     mixing beta               =       0.7000
     number of iterations used =            8  plain     mixing
     Exchange-correlation      =  SLA  PZ   NOGX NOGC ( 1  1  0  0 0 0)

     celldm(1)=   4.160000  celldm(2)=   0.000000  celldm(3)=   1.632993
     celldm(4)=   0.000000  celldm(5)=   0.000000  celldm(6)=   0.000000

     crystal axes: (cart. coord. in units of alat)
               a(1) = (   1.000000   0.000000   0.000000 )  
               a(2) = (  -0.500000   0.866025   0.000000 )  
               a(3) = (   0.000000   0.000000   1.632993 )  

     reciprocal axes: (cart. coord. in units 2 pi/alat)
               b(1) = (  1.000000  0.577350 -0.000000 )  
               b(2) = (  0.000000  1.154701  0.000000 )  
               b(3) = (  0.000000 -0.000000  0.612372 )  


     PseudoPot. # 1 for Co read from file:
     ./Co.pz-nd-rrkjus.UPF
     MD5 check sum: c80159f6ca3a93d3df3cfc6468bb3c3d
     Pseudo is Ultrasoft + core correction, Zval =  9.0
     Generated by new atomic code, or converted to UPF format
     Using radial grid of  961 points,  6 beta functions with: 
                l(1) =   0
                l(2) =   0
                l(3) =   1
                l(4) =   1
                l(5) =   2
                l(6) =   2
     Q(r) pseudized with 0 coefficients 


     atomic species   valence    mass     pseudopotential
        Co             9.00    58.93300     Co( 1.00)

     Starting magnetic structure 
     atomic species   magnetization
        Co           0.700

     24 Sym. Ops., with inversion, found (12 have fractional translation)



   Cartesian axes

     site n.     atom                  positions (alat units)
         1           Co  tau(   1) = (  -0.0000000   0.5773503   0.4082483  )
         2           Co  tau(   2) = (   0.5000000   0.2886751   1.2247449  )

     number of k points=    76  Marzari-Vanderbilt smearing, width (Ry)=  0.0300
                       cart. coord. in units 2pi/alat
        k(    1) = (   0.0000000   0.0000000   0.0000000), wk =   0.0011574
        k(    2) = (   0.0000000   0.0000000   0.1020621), wk =   0.0023148
        k(    3) = (   0.0000000   0.0000000   0.2041241), wk =   0.0023148
        k(    4) = (   0.0000000   0.0000000  -0.3061862), wk =   0.0011574
        k(    5) = (   0.0000000   0.0962250   0.0000000), wk =   0.0069444
        k(    6) = (   0.0000000   0.0962250   0.1020621), wk =   0.0138889
        k(    7) = (   0.0000000   0.0962250   0.2041241), wk =   0.0138889
        k(    8) = (   0.0000000   0.0962250  -0.3061862), wk =   0.0069444
        k(    9) = (   0.0000000   0.1924501   0.0000000), wk =   0.0069444
        k(   10) = (   0.0000000   0.1924501   0.1020621), wk =   0.0138889
        k(   11) = (   0.0000000   0.1924501   0.2041241), wk =   0.0138889
        k(   12) = (   0.0000000   0.1924501  -0.3061862), wk =   0.0069444
        k(   13) = (   0.0000000   0.2886751   0.0000000), wk =   0.0069444
        k(   14) = (   0.0000000   0.2886751   0.1020621), wk =   0.0138889
        k(   15) = (   0.0000000   0.2886751   0.2041241), wk =   0.0138889
        k(   16) = (   0.0000000   0.2886751  -0.3061862), wk =   0.0069444
        k(   17) = (   0.0000000   0.3849002   0.0000000), wk =   0.0069444
        k(   18) = (   0.0000000   0.3849002   0.1020621), wk =   0.0138889
        k(   19) = (   0.0000000   0.3849002   0.2041241), wk =   0.0138889
        k(   20) = (   0.0000000   0.3849002  -0.3061862), wk =   0.0069444
        k(   21) = (   0.0000000   0.4811252   0.0000000), wk =   0.0069444
        k(   22) = (   0.0000000   0.4811252   0.1020621), wk =   0.0138889
        k(   23) = (   0.0000000   0.4811252   0.2041241), wk =   0.0138889
        k(   24) = (   0.0000000   0.4811252  -0.3061862), wk =   0.0069444
        k(   25) = (   0.0000000  -0.5773503   0.0000000), wk =   0.0034722
        k(   26) = (   0.0000000  -0.5773503   0.1020621), wk =   0.0069444
        k(   27) = (   0.0000000  -0.5773503   0.2041241), wk =   0.0069444
        k(   28) = (   0.0000000  -0.5773503  -0.3061862), wk =   0.0034722
        k(   29) = (   0.0833333   0.1443376   0.0000000), wk =   0.0069444
        k(   30) = (   0.0833333   0.1443376   0.1020621), wk =   0.0138889
        k(   31) = (   0.0833333   0.1443376   0.2041241), wk =   0.0138889
        k(   32) = (   0.0833333   0.1443376  -0.3061862), wk =   0.0069444
        k(   33) = (   0.0833333   0.2405626   0.0000000), wk =   0.0138889
        k(   34) = (   0.0833333   0.2405626   0.1020621), wk =   0.0277778
        k(   35) = (   0.0833333   0.2405626   0.2041241), wk =   0.0277778
        k(   36) = (   0.0833333   0.2405626  -0.3061862), wk =   0.0138889
        k(   37) = (   0.0833333   0.3367877   0.0000000), wk =   0.0138889
        k(   38) = (   0.0833333   0.3367877   0.1020621), wk =   0.0277778
        k(   39) = (   0.0833333   0.3367877   0.2041241), wk =   0.0277778
        k(   40) = (   0.0833333   0.3367877  -0.3061862), wk =   0.0138889
        k(   41) = (   0.0833333   0.4330127   0.0000000), wk =   0.0138889
        k(   42) = (   0.0833333   0.4330127   0.1020621), wk =   0.0277778
        k(   43) = (   0.0833333   0.4330127   0.2041241), wk =   0.0277778
        k(   44) = (   0.0833333   0.4330127  -0.3061862), wk =   0.0138889
        k(   45) = (   0.0833333   0.5292377   0.0000000), wk =   0.0138889
        k(   46) = (   0.0833333   0.5292377   0.1020621), wk =   0.0277778
        k(   47) = (   0.0833333   0.5292377   0.2041241), wk =   0.0277778
        k(   48) = (   0.0833333   0.5292377  -0.3061862), wk =   0.0138889
        k(   49) = (   0.1666667   0.2886751   0.0000000), wk =   0.0069444
        k(   50) = (   0.1666667   0.2886751   0.1020621), wk =   0.0138889
        k(   51) = (   0.1666667   0.2886751   0.2041241), wk =   0.0138889
        k(   52) = (   0.1666667   0.2886751  -0.3061862), wk =   0.0069444
        k(   53) = (   0.1666667   0.3849002   0.0000000), wk =   0.0138889
        k(   54) = (   0.1666667   0.3849002   0.1020621), wk =   0.0277778
        k(   55) = (   0.1666667   0.3849002   0.2041241), wk =   0.0277778
        k(   56) = (   0.1666667   0.3849002  -0.3061862), wk =   0.0138889
        k(   57) = (   0.1666667   0.4811252   0.0000000), wk =   0.0138889
        k(   58) = (   0.1666667   0.4811252   0.1020621), wk =   0.0277778
        k(   59) = (   0.1666667   0.4811252   0.2041241), wk =   0.0277778
        k(   60) = (   0.1666667   0.4811252  -0.3061862), wk =   0.0138889
        k(   61) = (   0.1666667   0.5773503   0.0000000), wk =   0.0069444
        k(   62) = (   0.1666667   0.5773503   0.1020621), wk =   0.0138889
        k(   63) = (   0.1666667   0.5773503   0.2041241), wk =   0.0138889
        k(   64) = (   0.1666667   0.5773503  -0.3061862), wk =   0.0069444
        k(   65) = (   0.2500000   0.4330127   0.0000000), wk =   0.0069444
        k(   66) = (   0.2500000   0.4330127   0.1020621), wk =   0.0138889
        k(   67) = (   0.2500000   0.4330127   0.2041241), wk =   0.0138889
        k(   68) = (   0.2500000   0.4330127  -0.3061862), wk =   0.0069444
        k(   69) = (   0.2500000   0.5292377   0.0000000), wk =   0.0138889
        k(   70) = (   0.2500000   0.5292377   0.1020621), wk =   0.0277778
        k(   71) = (   0.2500000   0.5292377   0.2041241), wk =   0.0277778
        k(   72) = (   0.2500000   0.5292377  -0.3061862), wk =   0.0138889
        k(   73) = (   0.3333333   0.5773503   0.0000000), wk =   0.0023148
        k(   74) = (   0.3333333   0.5773503   0.1020621), wk =   0.0046296
        k(   75) = (   0.3333333   0.5773503   0.2041241), wk =   0.0046296
        k(   76) = (   0.3333333   0.5773503  -0.3061862), wk =   0.0023148

     Dense  grid:     6791 G-vectors     FFT dimensions: (  24,  24,  36)

     Smooth grid:     2273 G-vectors     FFT dimensions: (  15,  15,  24)

     Estimated max dynamical RAM per process >      37.65 MB
     Generating pointlists ...
     new r_m :   0.4125 (alat units)  1.7160 (a.u.) for type    1

     Check: negative core charge=   -0.000006

     Initial potential from superposition of free atoms

     starting charge   17.99923, renormalised to   18.00000
     Starting wfcs are   12 randomized atomic wfcs +    1 random wfcs

     total cpu time spent up to now is        2.0 secs

     Self-consistent Calculation

     iteration #  1     ecut=    30.00 Ry     beta= 0.70
     Davidson diagonalization with overlap
     ethr =  1.00E-02,  avg # of iterations =  3.5

     total cpu time spent up to now is        5.8 secs

     total energy              =    -147.95974549 Ry
     Harris-Foulkes estimate   =    -147.86395178 Ry
     estimated scf accuracy    <       1.02018148 Ry

     total magnetization       =     4.21 Bohr mag/cell
     absolute magnetization    =     4.21 Bohr mag/cell

     iteration #  2     ecut=    30.00 Ry     beta= 0.70
     Davidson diagonalization with overlap
     ethr =  5.67E-03,  avg # of iterations =  2.0

     total cpu time spent up to now is        9.0 secs

     total energy              =    -148.17109949 Ry
     Harris-Foulkes estimate   =    -148.35651103 Ry
     estimated scf accuracy    <       0.51929743 Ry

     total magnetization       =     3.11 Bohr mag/cell
     absolute magnetization    =     3.21 Bohr mag/cell

     iteration #  3     ecut=    30.00 Ry     beta= 0.70
     Davidson diagonalization with overlap
     ethr =  2.88E-03,  avg # of iterations =  2.0

     total cpu time spent up to now is       12.1 secs

     total energy              =    -148.30948340 Ry
     Harris-Foulkes estimate   =    -148.29209440 Ry
     estimated scf accuracy    <       0.04938763 Ry

     total magnetization       =     3.13 Bohr mag/cell
     absolute magnetization    =     3.24 Bohr mag/cell

     iteration #  4     ecut=    30.00 Ry     beta= 0.70
     Davidson diagonalization with overlap
     ethr =  2.74E-04,  avg # of iterations =  1.1

     total cpu time spent up to now is       14.7 secs

     total energy              =    -148.32413707 Ry
     Harris-Foulkes estimate   =    -148.32516869 Ry
     estimated scf accuracy    <       0.00552216 Ry

     total magnetization       =     2.30 Bohr mag/cell
     absolute magnetization    =     2.48 Bohr mag/cell

     iteration #  5     ecut=    30.00 Ry     beta= 0.70
     Davidson diagonalization with overlap
     ethr =  3.07E-05,  avg # of iterations =  1.4

     total cpu time spent up to now is       17.2 secs

     total energy              =    -148.32738940 Ry
     Harris-Foulkes estimate   =    -148.32444369 Ry
     estimated scf accuracy    <       0.00640528 Ry

     total magnetization       =     2.36 Bohr mag/cell
     absolute magnetization    =     2.54 Bohr mag/cell

     iteration #  6     ecut=    30.00 Ry     beta= 0.70
     Davidson diagonalization with overlap
     ethr =  3.07E-05,  avg # of iterations =  1.0

     total cpu time spent up to now is       19.6 secs

     total energy              =    -148.32581657 Ry
     Harris-Foulkes estimate   =    -148.32824876 Ry
     estimated scf accuracy    <       0.00591518 Ry

     total magnetization       =     2.15 Bohr mag/cell
     absolute magnetization    =     2.31 Bohr mag/cell

     iteration #  7     ecut=    30.00 Ry     beta= 0.70
     Davidson diagonalization with overlap
     ethr =  3.07E-05,  avg # of iterations =  2.0

     total cpu time spent up to now is       22.6 secs

     total energy              =    -148.33628467 Ry
     Harris-Foulkes estimate   =    -148.33546978 Ry
     estimated scf accuracy    <       0.00373918 Ry

     total magnetization       =     1.39 Bohr mag/cell
     absolute magnetization    =     1.48 Bohr mag/cell

     iteration #  8     ecut=    30.00 Ry     beta= 0.70
     Davidson diagonalization with overlap
     ethr =  2.08E-05,  avg # of iterations =  1.0

     total cpu time spent up to now is       25.0 secs

     total energy              =    -148.33385879 Ry
     Harris-Foulkes estimate   =    -148.33641145 Ry
     estimated scf accuracy    <       0.00717018 Ry

     total magnetization       =     1.40 Bohr mag/cell
     absolute magnetization    =     1.50 Bohr mag/cell

     iteration #  9     ecut=    30.00 Ry     beta= 0.70
     Davidson diagonalization with overlap
     ethr =  2.08E-05,  avg # of iterations =  1.5

     total cpu time spent up to now is       27.8 secs

     total energy              =    -148.33549305 Ry
     Harris-Foulkes estimate   =    -148.33571150 Ry
     estimated scf accuracy    <       0.00122717 Ry

     total magnetization       =     1.10 Bohr mag/cell
     absolute magnetization    =     1.16 Bohr mag/cell

     iteration # 10     ecut=    30.00 Ry     beta= 0.70
     Davidson diagonalization with overlap
     ethr =  6.82E-06,  avg # of iterations =  1.0

     total cpu time spent up to now is       30.3 secs

     total energy              =    -148.33444394 Ry
     Harris-Foulkes estimate   =    -148.33555637 Ry
     estimated scf accuracy    <       0.00041126 Ry

     total magnetization       =     1.06 Bohr mag/cell
     absolute magnetization    =     1.13 Bohr mag/cell

     iteration # 11     ecut=    30.00 Ry     beta= 0.70
     Davidson diagonalization with overlap
     ethr =  2.28E-06,  avg # of iterations =  2.0

     total cpu time spent up to now is       33.6 secs

     total energy              =    -148.33588806 Ry
     Harris-Foulkes estimate   =    -148.33586236 Ry
     estimated scf accuracy    <       0.00008297 Ry

     total magnetization       =     0.75 Bohr mag/cell
     absolute magnetization    =     0.79 Bohr mag/cell

     iteration # 12     ecut=    30.00 Ry     beta= 0.70
     Davidson diagonalization with overlap
     ethr =  4.61E-07,  avg # of iterations =  1.2

     total cpu time spent up to now is       36.0 secs

     total energy              =    -148.33582805 Ry
     Harris-Foulkes estimate   =    -148.33590913 Ry
     estimated scf accuracy    <       0.00012911 Ry

     total magnetization       =     0.71 Bohr mag/cell
     absolute magnetization    =     0.75 Bohr mag/cell

     iteration # 13     ecut=    30.00 Ry     beta= 0.70
     Davidson diagonalization with overlap
     ethr =  4.61E-07,  avg # of iterations =  1.5

     total cpu time spent up to now is       38.9 secs

     total energy              =    -148.33327467 Ry
     Harris-Foulkes estimate   =    -148.33585344 Ry
     estimated scf accuracy    <       0.00003015 Ry

     total magnetization       =     0.75 Bohr mag/cell
     absolute magnetization    =     0.79 Bohr mag/cell

     iteration # 14     ecut=    30.00 Ry     beta= 0.70
     Davidson diagonalization with overlap
     ethr =  1.68E-07,  avg # of iterations =  3.0

     total cpu time spent up to now is       43.4 secs

     total energy              =    -148.33577374 Ry
     Harris-Foulkes estimate   =    -148.33603336 Ry
     estimated scf accuracy    <       0.00000241 Ry

     total magnetization       =     0.27 Bohr mag/cell
     absolute magnetization    =     0.28 Bohr mag/cell

     iteration # 15     ecut=    30.00 Ry     beta= 0.70
     Davidson diagonalization with overlap
     ethr =  1.34E-08,  avg # of iterations =  3.0

     total cpu time spent up to now is       48.1 secs

     total energy              =    -148.33524245 Ry
     Harris-Foulkes estimate   =    -148.33601089 Ry
     estimated scf accuracy    <       0.00000344 Ry

     total magnetization       =     0.41 Bohr mag/cell
     absolute magnetization    =     0.43 Bohr mag/cell

     iteration # 16     ecut=    30.00 Ry     beta= 0.70
     Davidson diagonalization with overlap
     ethr =  1.34E-08,  avg # of iterations =  3.7

     total cpu time spent up to now is       53.0 secs

     total energy              =    -148.33602621 Ry
     Harris-Foulkes estimate   =    -148.33605356 Ry
     estimated scf accuracy    <       0.00000356 Ry

     total magnetization       =     0.15 Bohr mag/cell
     absolute magnetization    =     0.16 Bohr mag/cell

     iteration # 17     ecut=    30.00 Ry     beta= 0.70
     Davidson diagonalization with overlap
     ethr =  1.34E-08,  avg # of iterations =  2.7

     total cpu time spent up to now is       56.8 secs

     total energy              =    -148.33605065 Ry
     Harris-Foulkes estimate   =    -148.33605089 Ry
     estimated scf accuracy    <       0.00000156 Ry

     total magnetization       =     0.19 Bohr mag/cell
     absolute magnetization    =     0.20 Bohr mag/cell

     iteration # 18     ecut=    30.00 Ry     beta= 0.70
     Davidson diagonalization with overlap
     ethr =  8.69E-09,  avg # of iterations =  1.1

     total cpu time spent up to now is       59.3 secs

     total energy              =    -148.33604377 Ry
     Harris-Foulkes estimate   =    -148.33605200 Ry
     estimated scf accuracy    <       0.00000109 Ry

     total magnetization       =     0.18 Bohr mag/cell
     absolute magnetization    =     0.19 Bohr mag/cell

     iteration # 19     ecut=    30.00 Ry     beta= 0.70
     Davidson diagonalization with overlap
     ethr =  6.08E-09,  avg # of iterations =  2.9

     total cpu time spent up to now is       63.2 secs

     total energy              =    -148.33603554 Ry
     Harris-Foulkes estimate   =    -148.33605482 Ry
     estimated scf accuracy    <       0.00000070 Ry

     total magnetization       =     0.15 Bohr mag/cell
     absolute magnetization    =     0.16 Bohr mag/cell

     iteration # 20     ecut=    30.00 Ry     beta= 0.70
     Davidson diagonalization with overlap
     ethr =  3.90E-09,  avg # of iterations =  3.0

     total cpu time spent up to now is       67.6 secs

     total energy              =    -148.33594166 Ry
     Harris-Foulkes estimate   =    -148.33605792 Ry
     estimated scf accuracy    <       0.00000038 Ry

     total magnetization       =     0.11 Bohr mag/cell
     absolute magnetization    =     0.12 Bohr mag/cell

     iteration # 21     ecut=    30.00 Ry     beta= 0.70
     Davidson diagonalization with overlap
     ethr =  2.12E-09,  avg # of iterations =  3.6

     total cpu time spent up to now is       72.5 secs

     total energy              =    -148.33606092 Ry
     Harris-Foulkes estimate   =    -148.33606083 Ry
     estimated scf accuracy    <       0.00000002 Ry

     total magnetization       =     0.01 Bohr mag/cell
     absolute magnetization    =     0.01 Bohr mag/cell

     iteration # 22     ecut=    30.00 Ry     beta= 0.70
     Davidson diagonalization with overlap
     ethr =  9.64E-11,  avg # of iterations =  3.0

     Magnetic moment per site:
     atom:    1    charge:    7.4269    magn:    0.0075    constr:    0.0000
     atom:    2    charge:    7.4269    magn:    0.0075    constr:    0.0000

     total cpu time spent up to now is       76.5 secs

     End of self-consistent calculation

     Number of k-points >= 100: set verbosity='high' to print the bands.

     the Fermi energy is    21.9458 ev

!    total energy              =    -148.33606121 Ry
     Harris-Foulkes estimate   =    -148.33606118 Ry
     estimated scf accuracy    <          3.5E-09 Ry

     The total energy is the sum of the following terms:

     one-electron contribution =      27.41234440 Ry
     hartree contribution      =      15.97205228 Ry
     xc contribution           =     -65.47100334 Ry
     ewald contribution        =    -126.24545569 Ry
     smearing contrib. (-TS)   =      -0.00399886 Ry

     total magnetization       =     0.01 Bohr mag/cell
     absolute magnetization    =     0.02 Bohr mag/cell

     convergence has been achieved in  22 iterations

     Forces acting on atoms (cartesian axes, Ry/au):

     atom    1 type  1   force =    -0.00000000   -0.00000000    0.00000000
     atom    2 type  1   force =     0.00000000    0.00000000    0.00000000

     Total force =     0.000000     Total SCF correction =     0.000000


     Computing stress (Cartesian axis) and pressure

          total   stress  (Ry/bohr**3)                   (kbar)     P= 1285.76
   0.00893093   0.00000000   0.00000000       1313.79      0.00      0.00
   0.00000000   0.00893093   0.00000000          0.00   1313.79      0.00
   0.00000000   0.00000000   0.00835931          0.00      0.00   1229.70


     Writing output data file Co.HCP.save/

     init_run     :      1.67s CPU      1.69s WALL (       1 calls)
     electrons    :     73.28s CPU     74.59s WALL (       1 calls)
     forces       :      0.78s CPU      0.78s WALL (       1 calls)
     stress       :      1.25s CPU      1.26s WALL (       1 calls)

     Called by init_run:
     wfcinit      :      0.84s CPU      0.85s WALL (       1 calls)
     potinit      :      0.05s CPU      0.05s WALL (       1 calls)
     hinit0       :      0.67s CPU      0.67s WALL (       1 calls)

     Called by electrons:
     c_bands      :     60.56s CPU     61.66s WALL (      22 calls)
     sum_band     :     10.21s CPU     10.40s WALL (      22 calls)
     v_of_rho     :      0.42s CPU      0.43s WALL (      23 calls)
     newd         :      1.98s CPU      2.00s WALL (      23 calls)
     mix_rho      :      0.15s CPU      0.15s WALL (      22 calls)

     Called by c_bands:
     init_us_2    :      1.37s CPU      1.40s WALL (    7144 calls)
     cegterg      :     57.40s CPU     58.46s WALL (    3344 calls)

     Called by sum_band:
     sum_band:bec :      0.30s CPU      0.31s WALL (    3344 calls)
     addusdens    :      3.23s CPU      3.26s WALL (      22 calls)

     Called by *egterg:
     h_psi        :     27.73s CPU     28.28s WALL (   10696 calls)
     s_psi        :      6.28s CPU      6.43s WALL (   10696 calls)
     g_psi        :      0.17s CPU      0.17s WALL (    7200 calls)
     cdiaghg      :      8.18s CPU      8.30s WALL (   10544 calls)

     Called by h_psi:
     h_psi:pot    :     27.59s CPU     28.13s WALL (   10696 calls)
     h_psi:calbec :      6.98s CPU      7.14s WALL (   10696 calls)
     vloc_psi     :     14.32s CPU     14.57s WALL (   10696 calls)
     add_vuspsi   :      6.22s CPU      6.37s WALL (   10696 calls)

     General routines
     calbec       :      9.98s CPU     10.21s WALL (   14800 calls)
     fft          :      0.28s CPU      0.28s WALL (     257 calls)
     ffts         :      0.02s CPU      0.02s WALL (      90 calls)
     fftw         :     10.59s CPU     10.80s WALL (  276708 calls)
     interpolate  :      0.07s CPU      0.07s WALL (      46 calls)

     Parallel routines

     PWSCF        :   1m17.32s CPU   1m18.71s WALL


   This run was terminated on:  13:44:14  19Feb2020            

=------------------------------------------------------------------------------=
   JOB DONE.
=------------------------------------------------------------------------------=
