     Message from routine get_command_line:
     unexpected argument # 2     :-input

     Program PWSCF v.6.4.1 starts on 19Feb2020 at 14:12:13 

     This program is part of the open-source Quantum ESPRESSO suite
     for quantum simulation of materials; please cite
         "P. Giannozzi et al., J. Phys.:Condens. Matter 21 395502 (2009);
         "P. Giannozzi et al., J. Phys.:Condens. Matter 29 465901 (2017);
          URL http://www.quantum-espresso.org", 
     in publications or presentations arising from this work. More details at
     http://www.quantum-espresso.org/quote

     Parallel version (MPI), running on     1 processors

     MPI processes distributed on     1 nodes
     Waiting for input...
     Reading input from standard input

     Current dimensions of program PWSCF are:
     Max number of different atomic species (ntypx) = 10
     Max number of k-points (npk) =  40000
     Max angular momentum in pseudopotentials (lmaxx) =  3
               file Co.pz-nd-rrkjus.UPF: wavefunction(s)  4S 3D renormalized

     Subspace diagonalization in iterative solution of the eigenvalue problem:
     a serial algorithm will be used


     G-vector sticks info
     --------------------
     sticks:   dense  smooth     PW     G-vecs:    dense   smooth      PW
     Sum         379     187     61                 9885     3285     687



     bravais-lattice index     =            4
     lattice parameter (alat)  =       4.7000  a.u.
     unit-cell volume          =     146.8279 (a.u.)^3
     number of atoms/cell      =            2
     number of atomic types    =            1
     number of electrons       =        18.00
     number of Kohn-Sham states=           13
     kinetic-energy cutoff     =      30.0000  Ry
     charge density cutoff     =     250.0000  Ry
     convergence threshold     =      1.0E-08
     mixing beta               =       0.7000
     number of iterations used =            8  plain     mixing
     Exchange-correlation      =  SLA  PZ   NOGX NOGC ( 1  1  0  0 0 0)

     celldm(1)=   4.700000  celldm(2)=   0.000000  celldm(3)=   1.632993
     celldm(4)=   0.000000  celldm(5)=   0.000000  celldm(6)=   0.000000

     crystal axes: (cart. coord. in units of alat)
               a(1) = (   1.000000   0.000000   0.000000 )  
               a(2) = (  -0.500000   0.866025   0.000000 )  
               a(3) = (   0.000000   0.000000   1.632993 )  

     reciprocal axes: (cart. coord. in units 2 pi/alat)
               b(1) = (  1.000000  0.577350 -0.000000 )  
               b(2) = (  0.000000  1.154701  0.000000 )  
               b(3) = (  0.000000 -0.000000  0.612372 )  


     PseudoPot. # 1 for Co read from file:
     ./Co.pz-nd-rrkjus.UPF
     MD5 check sum: c80159f6ca3a93d3df3cfc6468bb3c3d
     Pseudo is Ultrasoft + core correction, Zval =  9.0
     Generated by new atomic code, or converted to UPF format
     Using radial grid of  961 points,  6 beta functions with: 
                l(1) =   0
                l(2) =   0
                l(3) =   1
                l(4) =   1
                l(5) =   2
                l(6) =   2
     Q(r) pseudized with 0 coefficients 


     atomic species   valence    mass     pseudopotential
        Co             9.00    58.93300     Co( 1.00)

     Starting magnetic structure 
     atomic species   magnetization
        Co           0.700

     24 Sym. Ops., with inversion, found (12 have fractional translation)



   Cartesian axes

     site n.     atom                  positions (alat units)
         1           Co  tau(   1) = (  -0.0000000   0.5773503   0.4082483  )
         2           Co  tau(   2) = (   0.5000000   0.2886751   1.2247449  )

     number of k points=    76  Marzari-Vanderbilt smearing, width (Ry)=  0.0300
                       cart. coord. in units 2pi/alat
        k(    1) = (   0.0000000   0.0000000   0.0000000), wk =   0.0011574
        k(    2) = (   0.0000000   0.0000000   0.1020621), wk =   0.0023148
        k(    3) = (   0.0000000   0.0000000   0.2041241), wk =   0.0023148
        k(    4) = (   0.0000000   0.0000000  -0.3061862), wk =   0.0011574
        k(    5) = (   0.0000000   0.0962250   0.0000000), wk =   0.0069444
        k(    6) = (   0.0000000   0.0962250   0.1020621), wk =   0.0138889
        k(    7) = (   0.0000000   0.0962250   0.2041241), wk =   0.0138889
        k(    8) = (   0.0000000   0.0962250  -0.3061862), wk =   0.0069444
        k(    9) = (   0.0000000   0.1924501   0.0000000), wk =   0.0069444
        k(   10) = (   0.0000000   0.1924501   0.1020621), wk =   0.0138889
        k(   11) = (   0.0000000   0.1924501   0.2041241), wk =   0.0138889
        k(   12) = (   0.0000000   0.1924501  -0.3061862), wk =   0.0069444
        k(   13) = (   0.0000000   0.2886751   0.0000000), wk =   0.0069444
        k(   14) = (   0.0000000   0.2886751   0.1020621), wk =   0.0138889
        k(   15) = (   0.0000000   0.2886751   0.2041241), wk =   0.0138889
        k(   16) = (   0.0000000   0.2886751  -0.3061862), wk =   0.0069444
        k(   17) = (   0.0000000   0.3849002   0.0000000), wk =   0.0069444
        k(   18) = (   0.0000000   0.3849002   0.1020621), wk =   0.0138889
        k(   19) = (   0.0000000   0.3849002   0.2041241), wk =   0.0138889
        k(   20) = (   0.0000000   0.3849002  -0.3061862), wk =   0.0069444
        k(   21) = (   0.0000000   0.4811252   0.0000000), wk =   0.0069444
        k(   22) = (   0.0000000   0.4811252   0.1020621), wk =   0.0138889
        k(   23) = (   0.0000000   0.4811252   0.2041241), wk =   0.0138889
        k(   24) = (   0.0000000   0.4811252  -0.3061862), wk =   0.0069444
        k(   25) = (   0.0000000  -0.5773503   0.0000000), wk =   0.0034722
        k(   26) = (   0.0000000  -0.5773503   0.1020621), wk =   0.0069444
        k(   27) = (   0.0000000  -0.5773503   0.2041241), wk =   0.0069444
        k(   28) = (   0.0000000  -0.5773503  -0.3061862), wk =   0.0034722
        k(   29) = (   0.0833333   0.1443376   0.0000000), wk =   0.0069444
        k(   30) = (   0.0833333   0.1443376   0.1020621), wk =   0.0138889
        k(   31) = (   0.0833333   0.1443376   0.2041241), wk =   0.0138889
        k(   32) = (   0.0833333   0.1443376  -0.3061862), wk =   0.0069444
        k(   33) = (   0.0833333   0.2405626   0.0000000), wk =   0.0138889
        k(   34) = (   0.0833333   0.2405626   0.1020621), wk =   0.0277778
        k(   35) = (   0.0833333   0.2405626   0.2041241), wk =   0.0277778
        k(   36) = (   0.0833333   0.2405626  -0.3061862), wk =   0.0138889
        k(   37) = (   0.0833333   0.3367877   0.0000000), wk =   0.0138889
        k(   38) = (   0.0833333   0.3367877   0.1020621), wk =   0.0277778
        k(   39) = (   0.0833333   0.3367877   0.2041241), wk =   0.0277778
        k(   40) = (   0.0833333   0.3367877  -0.3061862), wk =   0.0138889
        k(   41) = (   0.0833333   0.4330127   0.0000000), wk =   0.0138889
        k(   42) = (   0.0833333   0.4330127   0.1020621), wk =   0.0277778
        k(   43) = (   0.0833333   0.4330127   0.2041241), wk =   0.0277778
        k(   44) = (   0.0833333   0.4330127  -0.3061862), wk =   0.0138889
        k(   45) = (   0.0833333   0.5292377   0.0000000), wk =   0.0138889
        k(   46) = (   0.0833333   0.5292377   0.1020621), wk =   0.0277778
        k(   47) = (   0.0833333   0.5292377   0.2041241), wk =   0.0277778
        k(   48) = (   0.0833333   0.5292377  -0.3061862), wk =   0.0138889
        k(   49) = (   0.1666667   0.2886751   0.0000000), wk =   0.0069444
        k(   50) = (   0.1666667   0.2886751   0.1020621), wk =   0.0138889
        k(   51) = (   0.1666667   0.2886751   0.2041241), wk =   0.0138889
        k(   52) = (   0.1666667   0.2886751  -0.3061862), wk =   0.0069444
        k(   53) = (   0.1666667   0.3849002   0.0000000), wk =   0.0138889
        k(   54) = (   0.1666667   0.3849002   0.1020621), wk =   0.0277778
        k(   55) = (   0.1666667   0.3849002   0.2041241), wk =   0.0277778
        k(   56) = (   0.1666667   0.3849002  -0.3061862), wk =   0.0138889
        k(   57) = (   0.1666667   0.4811252   0.0000000), wk =   0.0138889
        k(   58) = (   0.1666667   0.4811252   0.1020621), wk =   0.0277778
        k(   59) = (   0.1666667   0.4811252   0.2041241), wk =   0.0277778
        k(   60) = (   0.1666667   0.4811252  -0.3061862), wk =   0.0138889
        k(   61) = (   0.1666667   0.5773503   0.0000000), wk =   0.0069444
        k(   62) = (   0.1666667   0.5773503   0.1020621), wk =   0.0138889
        k(   63) = (   0.1666667   0.5773503   0.2041241), wk =   0.0138889
        k(   64) = (   0.1666667   0.5773503  -0.3061862), wk =   0.0069444
        k(   65) = (   0.2500000   0.4330127   0.0000000), wk =   0.0069444
        k(   66) = (   0.2500000   0.4330127   0.1020621), wk =   0.0138889
        k(   67) = (   0.2500000   0.4330127   0.2041241), wk =   0.0138889
        k(   68) = (   0.2500000   0.4330127  -0.3061862), wk =   0.0069444
        k(   69) = (   0.2500000   0.5292377   0.0000000), wk =   0.0138889
        k(   70) = (   0.2500000   0.5292377   0.1020621), wk =   0.0277778
        k(   71) = (   0.2500000   0.5292377   0.2041241), wk =   0.0277778
        k(   72) = (   0.2500000   0.5292377  -0.3061862), wk =   0.0138889
        k(   73) = (   0.3333333   0.5773503   0.0000000), wk =   0.0023148
        k(   74) = (   0.3333333   0.5773503   0.1020621), wk =   0.0046296
        k(   75) = (   0.3333333   0.5773503   0.2041241), wk =   0.0046296
        k(   76) = (   0.3333333   0.5773503  -0.3061862), wk =   0.0023148

     Dense  grid:     9885 G-vectors     FFT dimensions: (  24,  24,  40)

     Smooth grid:     3285 G-vectors     FFT dimensions: (  18,  18,  30)

     Estimated max dynamical RAM per process >      53.61 MB
     Generating pointlists ...
     new r_m :   0.4125 (alat units)  1.9388 (a.u.) for type    1

     Check: negative core charge=   -0.000025

     Initial potential from superposition of free atoms

     starting charge   17.99923, renormalised to   18.00000
     Starting wfcs are   12 randomized atomic wfcs +    1 random wfcs

     total cpu time spent up to now is        3.6 secs

     Self-consistent Calculation

     iteration #  1     ecut=    30.00 Ry     beta= 0.70
     Davidson diagonalization with overlap
     ethr =  1.00E-02,  avg # of iterations =  3.3

     total cpu time spent up to now is       12.8 secs

     total energy              =    -147.88015630 Ry
     Harris-Foulkes estimate   =    -148.16651228 Ry
     estimated scf accuracy    <       1.21054267 Ry

     total magnetization       =     5.04 Bohr mag/cell
     absolute magnetization    =     5.05 Bohr mag/cell

     iteration #  2     ecut=    30.00 Ry     beta= 0.70
     Davidson diagonalization with overlap
     ethr =  6.73E-03,  avg # of iterations =  2.6

     total cpu time spent up to now is       21.4 secs

     total energy              =    -148.10491449 Ry
     Harris-Foulkes estimate   =    -148.74061160 Ry
     estimated scf accuracy    <       1.60246837 Ry

     total magnetization       =     3.27 Bohr mag/cell
     absolute magnetization    =     3.42 Bohr mag/cell

     iteration #  3     ecut=    30.00 Ry     beta= 0.70
     Davidson diagonalization with overlap
     ethr =  6.73E-03,  avg # of iterations =  2.0

     total cpu time spent up to now is       28.9 secs

     total energy              =    -148.42970022 Ry
     Harris-Foulkes estimate   =    -148.39673395 Ry
     estimated scf accuracy    <       0.04193230 Ry

     total magnetization       =     3.62 Bohr mag/cell
     absolute magnetization    =     3.86 Bohr mag/cell

     iteration #  4     ecut=    30.00 Ry     beta= 0.70
     Davidson diagonalization with overlap
     ethr =  2.33E-04,  avg # of iterations =  1.9

     total cpu time spent up to now is       36.0 secs

     total energy              =    -148.43943381 Ry
     Harris-Foulkes estimate   =    -148.43917788 Ry
     estimated scf accuracy    <       0.00014006 Ry

     total magnetization       =     3.34 Bohr mag/cell
     absolute magnetization    =     3.63 Bohr mag/cell

     iteration #  5     ecut=    30.00 Ry     beta= 0.70
     Davidson diagonalization with overlap
     ethr =  7.78E-07,  avg # of iterations =  3.8

     total cpu time spent up to now is       47.5 secs

     total energy              =    -148.43972374 Ry
     Harris-Foulkes estimate   =    -148.43974015 Ry
     estimated scf accuracy    <       0.00005822 Ry

     total magnetization       =     3.37 Bohr mag/cell
     absolute magnetization    =     3.63 Bohr mag/cell

     iteration #  6     ecut=    30.00 Ry     beta= 0.70
     Davidson diagonalization with overlap
     ethr =  3.23E-07,  avg # of iterations =  2.0

     total cpu time spent up to now is       55.6 secs

     total energy              =    -148.43974400 Ry
     Harris-Foulkes estimate   =    -148.43974741 Ry
     estimated scf accuracy    <       0.00001156 Ry

     total magnetization       =     3.37 Bohr mag/cell
     absolute magnetization    =     3.62 Bohr mag/cell

     iteration #  7     ecut=    30.00 Ry     beta= 0.70
     Davidson diagonalization with overlap
     ethr =  6.42E-08,  avg # of iterations =  1.3

     total cpu time spent up to now is       62.1 secs

     total energy              =    -148.43974496 Ry
     Harris-Foulkes estimate   =    -148.43974527 Ry
     estimated scf accuracy    <       0.00000080 Ry

     total magnetization       =     3.37 Bohr mag/cell
     absolute magnetization    =     3.62 Bohr mag/cell

     iteration #  8     ecut=    30.00 Ry     beta= 0.70
     Davidson diagonalization with overlap
     ethr =  4.46E-09,  avg # of iterations =  2.0

     total cpu time spent up to now is       70.1 secs

     total energy              =    -148.43974518 Ry
     Harris-Foulkes estimate   =    -148.43974518 Ry
     estimated scf accuracy    <       0.00000001 Ry

     total magnetization       =     3.37 Bohr mag/cell
     absolute magnetization    =     3.62 Bohr mag/cell

     iteration #  9     ecut=    30.00 Ry     beta= 0.70
     Davidson diagonalization with overlap
     ethr =  6.13E-11,  avg # of iterations =  3.1

     total cpu time spent up to now is       79.7 secs

     total energy              =    -148.43974519 Ry
     Harris-Foulkes estimate   =    -148.43974519 Ry
     estimated scf accuracy    <       0.00000001 Ry

     total magnetization       =     3.37 Bohr mag/cell
     absolute magnetization    =     3.62 Bohr mag/cell

     iteration # 10     ecut=    30.00 Ry     beta= 0.70
     Davidson diagonalization with overlap
     ethr =  6.13E-11,  avg # of iterations =  1.4

     Magnetic moment per site:
     atom:    1    charge:    7.6661    magn:    1.7409    constr:    0.0000
     atom:    2    charge:    7.6661    magn:    1.7409    constr:    0.0000

     total cpu time spent up to now is       86.3 secs

     End of self-consistent calculation

     Number of k-points >= 100: set verbosity='high' to print the bands.

     the Fermi energy is    13.7387 ev

!    total energy              =    -148.43974519 Ry
     Harris-Foulkes estimate   =    -148.43974519 Ry
     estimated scf accuracy    <          2.3E-10 Ry

     The total energy is the sum of the following terms:

     one-electron contribution =       6.74214289 Ry
     hartree contribution      =      21.38565723 Ry
     xc contribution           =     -64.83591894 Ry
     ewald contribution        =    -111.74065865 Ry
     smearing contrib. (-TS)   =       0.00903228 Ry

     total magnetization       =     3.37 Bohr mag/cell
     absolute magnetization    =     3.62 Bohr mag/cell

     convergence has been achieved in  10 iterations

     Forces acting on atoms (cartesian axes, Ry/au):

     atom    1 type  1   force =     0.00000000    0.00000000    0.00000000
     atom    2 type  1   force =    -0.00000000   -0.00000000    0.00000000

     Total force =     0.000000     Total SCF correction =     0.000000


     Computing stress (Cartesian axis) and pressure

          total   stress  (Ry/bohr**3)                   (kbar)     P= -177.42
  -0.00117377   0.00000000   0.00000000       -172.67      0.00      0.00
   0.00000000  -0.00117377  -0.00000000          0.00   -172.67     -0.00
   0.00000000   0.00000000  -0.00127064          0.00      0.00   -186.92


     Writing output data file Co.HCP.save/

     init_run     :      3.21s CPU      3.34s WALL (       1 calls)
     electrons    :     81.47s CPU     82.68s WALL (       1 calls)
     forces       :      1.11s CPU      1.12s WALL (       1 calls)
     stress       :      1.84s CPU      1.84s WALL (       1 calls)

     Called by init_run:
     wfcinit      :      2.26s CPU      2.34s WALL (       1 calls)
     potinit      :      0.07s CPU      0.07s WALL (       1 calls)
     hinit0       :      0.74s CPU      0.76s WALL (       1 calls)

     Called by electrons:
     c_bands      :     66.91s CPU     67.97s WALL (      10 calls)
     sum_band     :     12.96s CPU     13.10s WALL (      10 calls)
     v_of_rho     :      0.25s CPU      0.25s WALL (      11 calls)
     newd         :      1.36s CPU      1.39s WALL (      11 calls)
     mix_rho      :      0.07s CPU      0.07s WALL (      10 calls)

     Called by c_bands:
     init_us_2    :      1.01s CPU      1.03s WALL (    3496 calls)
     cegterg      :     64.82s CPU     65.84s WALL (    1520 calls)

     Called by sum_band:
     sum_band:bec :      0.17s CPU      0.17s WALL (    1520 calls)
     addusdens    :      2.15s CPU      2.16s WALL (      10 calls)

     Called by *egterg:
     h_psi        :     49.22s CPU     50.08s WALL (    5243 calls)
     s_psi        :      3.97s CPU      4.04s WALL (    5243 calls)
     g_psi        :      0.10s CPU      0.11s WALL (    3571 calls)
     cdiaghg      :      3.92s CPU      3.96s WALL (    5091 calls)

     Called by h_psi:
     h_psi:pot    :     49.13s CPU     49.99s WALL (    5243 calls)
     h_psi:calbec :      4.45s CPU      4.53s WALL (    5243 calls)
     vloc_psi     :     40.62s CPU     41.34s WALL (    5243 calls)
     add_vuspsi   :      4.02s CPU      4.09s WALL (    5243 calls)

     General routines
     calbec       :      6.89s CPU      7.00s WALL (    7523 calls)
     fft          :      0.19s CPU      0.19s WALL (     125 calls)
     ffts         :      0.05s CPU      0.05s WALL (      42 calls)
     fftw         :     43.44s CPU     44.20s WALL (  125092 calls)
     interpolate  :      0.06s CPU      0.06s WALL (      22 calls)

     Parallel routines

     PWSCF        :   1m27.96s CPU   1m29.37s WALL


   This run was terminated on:  14:13:42  19Feb2020            

=------------------------------------------------------------------------------=
   JOB DONE.
=------------------------------------------------------------------------------=
