     Message from routine get_command_line:
     unexpected argument # 2     :-input

     Program PWSCF v.6.4.1 starts on 19Feb2020 at 14:55:47 

     This program is part of the open-source Quantum ESPRESSO suite
     for quantum simulation of materials; please cite
         "P. Giannozzi et al., J. Phys.:Condens. Matter 21 395502 (2009);
         "P. Giannozzi et al., J. Phys.:Condens. Matter 29 465901 (2017);
          URL http://www.quantum-espresso.org", 
     in publications or presentations arising from this work. More details at
     http://www.quantum-espresso.org/quote

     Parallel version (MPI), running on     1 processors

     MPI processes distributed on     1 nodes
     Waiting for input...
     Reading input from standard input

     Current dimensions of program PWSCF are:
     Max number of different atomic species (ntypx) = 10
     Max number of k-points (npk) =  40000
     Max angular momentum in pseudopotentials (lmaxx) =  3
               file Co.pz-nd-rrkjus.UPF: wavefunction(s)  4S 3D renormalized

     Subspace diagonalization in iterative solution of the eigenvalue problem:
     a serial algorithm will be used


     G-vector sticks info
     --------------------
     sticks:   dense  smooth     PW     G-vecs:    dense   smooth      PW
     Sum         499     241     85                14317     4735     941



     bravais-lattice index     =            4
     lattice parameter (alat)  =       5.3200  a.u.
     unit-cell volume          =     212.9364 (a.u.)^3
     number of atoms/cell      =            2
     number of atomic types    =            1
     number of electrons       =        18.00
     number of Kohn-Sham states=           13
     kinetic-energy cutoff     =      30.0000  Ry
     charge density cutoff     =     250.0000  Ry
     convergence threshold     =      1.0E-08
     mixing beta               =       0.7000
     number of iterations used =            8  plain     mixing
     Exchange-correlation      =  SLA  PZ   NOGX NOGC ( 1  1  0  0 0 0)

     celldm(1)=   5.320000  celldm(2)=   0.000000  celldm(3)=   1.632993
     celldm(4)=   0.000000  celldm(5)=   0.000000  celldm(6)=   0.000000

     crystal axes: (cart. coord. in units of alat)
               a(1) = (   1.000000   0.000000   0.000000 )  
               a(2) = (  -0.500000   0.866025   0.000000 )  
               a(3) = (   0.000000   0.000000   1.632993 )  

     reciprocal axes: (cart. coord. in units 2 pi/alat)
               b(1) = (  1.000000  0.577350 -0.000000 )  
               b(2) = (  0.000000  1.154701  0.000000 )  
               b(3) = (  0.000000 -0.000000  0.612372 )  


     PseudoPot. # 1 for Co read from file:
     ./Co.pz-nd-rrkjus.UPF
     MD5 check sum: c80159f6ca3a93d3df3cfc6468bb3c3d
     Pseudo is Ultrasoft + core correction, Zval =  9.0
     Generated by new atomic code, or converted to UPF format
     Using radial grid of  961 points,  6 beta functions with: 
                l(1) =   0
                l(2) =   0
                l(3) =   1
                l(4) =   1
                l(5) =   2
                l(6) =   2
     Q(r) pseudized with 0 coefficients 


     atomic species   valence    mass     pseudopotential
        Co             9.00    58.93300     Co( 1.00)

     Starting magnetic structure 
     atomic species   magnetization
        Co           0.700

     24 Sym. Ops., with inversion, found (12 have fractional translation)



   Cartesian axes

     site n.     atom                  positions (alat units)
         1           Co  tau(   1) = (  -0.0000000   0.5773503   0.4082483  )
         2           Co  tau(   2) = (   0.5000000   0.2886751   1.2247449  )

     number of k points=    76  Marzari-Vanderbilt smearing, width (Ry)=  0.0300
                       cart. coord. in units 2pi/alat
        k(    1) = (   0.0000000   0.0000000   0.0000000), wk =   0.0011574
        k(    2) = (   0.0000000   0.0000000   0.1020621), wk =   0.0023148
        k(    3) = (   0.0000000   0.0000000   0.2041241), wk =   0.0023148
        k(    4) = (   0.0000000   0.0000000  -0.3061862), wk =   0.0011574
        k(    5) = (   0.0000000   0.0962250   0.0000000), wk =   0.0069444
        k(    6) = (   0.0000000   0.0962250   0.1020621), wk =   0.0138889
        k(    7) = (   0.0000000   0.0962250   0.2041241), wk =   0.0138889
        k(    8) = (   0.0000000   0.0962250  -0.3061862), wk =   0.0069444
        k(    9) = (   0.0000000   0.1924501   0.0000000), wk =   0.0069444
        k(   10) = (   0.0000000   0.1924501   0.1020621), wk =   0.0138889
        k(   11) = (   0.0000000   0.1924501   0.2041241), wk =   0.0138889
        k(   12) = (   0.0000000   0.1924501  -0.3061862), wk =   0.0069444
        k(   13) = (   0.0000000   0.2886751   0.0000000), wk =   0.0069444
        k(   14) = (   0.0000000   0.2886751   0.1020621), wk =   0.0138889
        k(   15) = (   0.0000000   0.2886751   0.2041241), wk =   0.0138889
        k(   16) = (   0.0000000   0.2886751  -0.3061862), wk =   0.0069444
        k(   17) = (   0.0000000   0.3849002   0.0000000), wk =   0.0069444
        k(   18) = (   0.0000000   0.3849002   0.1020621), wk =   0.0138889
        k(   19) = (   0.0000000   0.3849002   0.2041241), wk =   0.0138889
        k(   20) = (   0.0000000   0.3849002  -0.3061862), wk =   0.0069444
        k(   21) = (   0.0000000   0.4811252   0.0000000), wk =   0.0069444
        k(   22) = (   0.0000000   0.4811252   0.1020621), wk =   0.0138889
        k(   23) = (   0.0000000   0.4811252   0.2041241), wk =   0.0138889
        k(   24) = (   0.0000000   0.4811252  -0.3061862), wk =   0.0069444
        k(   25) = (   0.0000000  -0.5773503   0.0000000), wk =   0.0034722
        k(   26) = (   0.0000000  -0.5773503   0.1020621), wk =   0.0069444
        k(   27) = (   0.0000000  -0.5773503   0.2041241), wk =   0.0069444
        k(   28) = (   0.0000000  -0.5773503  -0.3061862), wk =   0.0034722
        k(   29) = (   0.0833333   0.1443376   0.0000000), wk =   0.0069444
        k(   30) = (   0.0833333   0.1443376   0.1020621), wk =   0.0138889
        k(   31) = (   0.0833333   0.1443376   0.2041241), wk =   0.0138889
        k(   32) = (   0.0833333   0.1443376  -0.3061862), wk =   0.0069444
        k(   33) = (   0.0833333   0.2405626   0.0000000), wk =   0.0138889
        k(   34) = (   0.0833333   0.2405626   0.1020621), wk =   0.0277778
        k(   35) = (   0.0833333   0.2405626   0.2041241), wk =   0.0277778
        k(   36) = (   0.0833333   0.2405626  -0.3061862), wk =   0.0138889
        k(   37) = (   0.0833333   0.3367877   0.0000000), wk =   0.0138889
        k(   38) = (   0.0833333   0.3367877   0.1020621), wk =   0.0277778
        k(   39) = (   0.0833333   0.3367877   0.2041241), wk =   0.0277778
        k(   40) = (   0.0833333   0.3367877  -0.3061862), wk =   0.0138889
        k(   41) = (   0.0833333   0.4330127   0.0000000), wk =   0.0138889
        k(   42) = (   0.0833333   0.4330127   0.1020621), wk =   0.0277778
        k(   43) = (   0.0833333   0.4330127   0.2041241), wk =   0.0277778
        k(   44) = (   0.0833333   0.4330127  -0.3061862), wk =   0.0138889
        k(   45) = (   0.0833333   0.5292377   0.0000000), wk =   0.0138889
        k(   46) = (   0.0833333   0.5292377   0.1020621), wk =   0.0277778
        k(   47) = (   0.0833333   0.5292377   0.2041241), wk =   0.0277778
        k(   48) = (   0.0833333   0.5292377  -0.3061862), wk =   0.0138889
        k(   49) = (   0.1666667   0.2886751   0.0000000), wk =   0.0069444
        k(   50) = (   0.1666667   0.2886751   0.1020621), wk =   0.0138889
        k(   51) = (   0.1666667   0.2886751   0.2041241), wk =   0.0138889
        k(   52) = (   0.1666667   0.2886751  -0.3061862), wk =   0.0069444
        k(   53) = (   0.1666667   0.3849002   0.0000000), wk =   0.0138889
        k(   54) = (   0.1666667   0.3849002   0.1020621), wk =   0.0277778
        k(   55) = (   0.1666667   0.3849002   0.2041241), wk =   0.0277778
        k(   56) = (   0.1666667   0.3849002  -0.3061862), wk =   0.0138889
        k(   57) = (   0.1666667   0.4811252   0.0000000), wk =   0.0138889
        k(   58) = (   0.1666667   0.4811252   0.1020621), wk =   0.0277778
        k(   59) = (   0.1666667   0.4811252   0.2041241), wk =   0.0277778
        k(   60) = (   0.1666667   0.4811252  -0.3061862), wk =   0.0138889
        k(   61) = (   0.1666667   0.5773503   0.0000000), wk =   0.0069444
        k(   62) = (   0.1666667   0.5773503   0.1020621), wk =   0.0138889
        k(   63) = (   0.1666667   0.5773503   0.2041241), wk =   0.0138889
        k(   64) = (   0.1666667   0.5773503  -0.3061862), wk =   0.0069444
        k(   65) = (   0.2500000   0.4330127   0.0000000), wk =   0.0069444
        k(   66) = (   0.2500000   0.4330127   0.1020621), wk =   0.0138889
        k(   67) = (   0.2500000   0.4330127   0.2041241), wk =   0.0138889
        k(   68) = (   0.2500000   0.4330127  -0.3061862), wk =   0.0069444
        k(   69) = (   0.2500000   0.5292377   0.0000000), wk =   0.0138889
        k(   70) = (   0.2500000   0.5292377   0.1020621), wk =   0.0277778
        k(   71) = (   0.2500000   0.5292377   0.2041241), wk =   0.0277778
        k(   72) = (   0.2500000   0.5292377  -0.3061862), wk =   0.0138889
        k(   73) = (   0.3333333   0.5773503   0.0000000), wk =   0.0023148
        k(   74) = (   0.3333333   0.5773503   0.1020621), wk =   0.0046296
        k(   75) = (   0.3333333   0.5773503   0.2041241), wk =   0.0046296
        k(   76) = (   0.3333333   0.5773503  -0.3061862), wk =   0.0023148

     Dense  grid:    14317 G-vectors     FFT dimensions: (  27,  27,  48)

     Smooth grid:     4735 G-vectors     FFT dimensions: (  20,  20,  32)

     Estimated max dynamical RAM per process >      77.56 MB
     Generating pointlists ...
     new r_m :   0.4125 (alat units)  2.1945 (a.u.) for type    1

     Check: negative core charge=   -0.000062

     Initial potential from superposition of free atoms

     starting charge   17.99923, renormalised to   18.00000
     Starting wfcs are   12 randomized atomic wfcs +    1 random wfcs

     total cpu time spent up to now is        3.6 secs

     Self-consistent Calculation

     iteration #  1     ecut=    30.00 Ry     beta= 0.70
     Davidson diagonalization with overlap
     ethr =  1.00E-02,  avg # of iterations =  3.2

     total cpu time spent up to now is       10.5 secs

     total energy              =    -147.52412355 Ry
     Harris-Foulkes estimate   =    -148.11911040 Ry
     estimated scf accuracy    <       1.37921292 Ry

     total magnetization       =     5.80 Bohr mag/cell
     absolute magnetization    =     5.83 Bohr mag/cell

     iteration #  2     ecut=    30.00 Ry     beta= 0.70
     Davidson diagonalization with overlap
     ethr =  7.66E-03,  avg # of iterations =  2.9

     total cpu time spent up to now is       17.8 secs

     total energy              =    -147.69633936 Ry
     Harris-Foulkes estimate   =    -149.00795626 Ry
     estimated scf accuracy    <       3.77142302 Ry

     total magnetization       =     2.85 Bohr mag/cell
     absolute magnetization    =     2.98 Bohr mag/cell

     iteration #  3     ecut=    30.00 Ry     beta= 0.70
     Davidson diagonalization with overlap
     ethr =  7.66E-03,  avg # of iterations =  2.1

     total cpu time spent up to now is       24.0 secs

     total energy              =    -148.26732580 Ry
     Harris-Foulkes estimate   =    -148.23559854 Ry
     estimated scf accuracy    <       0.03705424 Ry

     total magnetization       =     4.19 Bohr mag/cell
     absolute magnetization    =     4.41 Bohr mag/cell

     iteration #  4     ecut=    30.00 Ry     beta= 0.70
     Davidson diagonalization with overlap
     ethr =  2.06E-04,  avg # of iterations =  2.4

     total cpu time spent up to now is       29.7 secs

     total energy              =    -148.27969542 Ry
     Harris-Foulkes estimate   =    -148.27918729 Ry
     estimated scf accuracy    <       0.00153981 Ry

     total magnetization       =     3.70 Bohr mag/cell
     absolute magnetization    =     4.09 Bohr mag/cell

     iteration #  5     ecut=    30.00 Ry     beta= 0.70
     Davidson diagonalization with overlap
     ethr =  8.55E-06,  avg # of iterations =  3.0

     total cpu time spent up to now is       36.4 secs

     total energy              =    -148.28057649 Ry
     Harris-Foulkes estimate   =    -148.28047666 Ry
     estimated scf accuracy    <       0.00007143 Ry

     total magnetization       =     3.62 Bohr mag/cell
     absolute magnetization    =     4.02 Bohr mag/cell

     iteration #  6     ecut=    30.00 Ry     beta= 0.70
     Davidson diagonalization with overlap
     ethr =  3.97E-07,  avg # of iterations =  2.3

     total cpu time spent up to now is       41.9 secs

     total energy              =    -148.28060489 Ry
     Harris-Foulkes estimate   =    -148.28060085 Ry
     estimated scf accuracy    <       0.00000709 Ry

     total magnetization       =     3.64 Bohr mag/cell
     absolute magnetization    =     4.02 Bohr mag/cell

     iteration #  7     ecut=    30.00 Ry     beta= 0.70
     Davidson diagonalization with overlap
     ethr =  3.94E-08,  avg # of iterations =  2.2

     total cpu time spent up to now is       47.8 secs

     total energy              =    -148.28060836 Ry
     Harris-Foulkes estimate   =    -148.28060712 Ry
     estimated scf accuracy    <       0.00000417 Ry

     total magnetization       =     3.64 Bohr mag/cell
     absolute magnetization    =     4.02 Bohr mag/cell

     iteration #  8     ecut=    30.00 Ry     beta= 0.70
     Davidson diagonalization with overlap
     ethr =  2.32E-08,  avg # of iterations =  2.2

     total cpu time spent up to now is       53.5 secs

     total energy              =    -148.28060986 Ry
     Harris-Foulkes estimate   =    -148.28060976 Ry
     estimated scf accuracy    <       0.00000021 Ry

     total magnetization       =     3.64 Bohr mag/cell
     absolute magnetization    =     4.01 Bohr mag/cell

     iteration #  9     ecut=    30.00 Ry     beta= 0.70
     Davidson diagonalization with overlap
     ethr =  1.16E-09,  avg # of iterations =  2.6

     total cpu time spent up to now is       59.8 secs

     total energy              =    -148.28060993 Ry
     Harris-Foulkes estimate   =    -148.28060994 Ry
     estimated scf accuracy    <       0.00000001 Ry

     total magnetization       =     3.64 Bohr mag/cell
     absolute magnetization    =     4.01 Bohr mag/cell

     iteration # 10     ecut=    30.00 Ry     beta= 0.70
     Davidson diagonalization with overlap
     ethr =  6.03E-11,  avg # of iterations =  2.2

     Magnetic moment per site:
     atom:    1    charge:    7.8979    magn:    1.8997    constr:    0.0000
     atom:    2    charge:    7.8979    magn:    1.8997    constr:    0.0000

     total cpu time spent up to now is       65.7 secs

     End of self-consistent calculation

     Number of k-points >= 100: set verbosity='high' to print the bands.

     the Fermi energy is     8.2656 ev

!    total energy              =    -148.28060994 Ry
     Harris-Foulkes estimate   =    -148.28060994 Ry
     estimated scf accuracy    <          3.3E-10 Ry

     The total energy is the sum of the following terms:

     one-electron contribution =     -12.63981191 Ry
     hartree contribution      =      27.50759434 Ry
     xc contribution           =     -64.43287511 Ry
     ewald contribution        =     -98.71825106 Ry
     smearing contrib. (-TS)   =       0.00273381 Ry

     total magnetization       =     3.64 Bohr mag/cell
     absolute magnetization    =     4.01 Bohr mag/cell

     convergence has been achieved in  10 iterations

     Forces acting on atoms (cartesian axes, Ry/au):

     atom    1 type  1   force =    -0.00000000   -0.00000000    0.00000000
     atom    2 type  1   force =     0.00000000    0.00000000    0.00000000

     Total force =     0.000000     Total SCF correction =     0.000000


     Computing stress (Cartesian axis) and pressure

          total   stress  (Ry/bohr**3)                   (kbar)     P= -414.11
  -0.00283259   0.00000000   0.00000000       -416.69      0.00      0.00
   0.00000000  -0.00283259   0.00000000          0.00   -416.69      0.00
   0.00000000   0.00000000  -0.00277995          0.00      0.00   -408.94


     Writing output data file Co.HCP.save/

     init_run     :      2.68s CPU      3.37s WALL (       1 calls)
     electrons    :     60.67s CPU     62.07s WALL (       1 calls)
     forces       :      1.63s CPU      1.65s WALL (       1 calls)
     stress       :      2.54s CPU      2.60s WALL (       1 calls)

     Called by init_run:
     wfcinit      :      1.57s CPU      1.60s WALL (       1 calls)
     potinit      :      0.07s CPU      0.07s WALL (       1 calls)
     hinit0       :      0.83s CPU      0.89s WALL (       1 calls)

     Called by electrons:
     c_bands      :     49.09s CPU     49.92s WALL (      10 calls)
     sum_band     :      9.32s CPU      9.66s WALL (      10 calls)
     v_of_rho     :      0.33s CPU      0.34s WALL (      11 calls)
     newd         :      1.98s CPU      2.21s WALL (      11 calls)
     mix_rho      :      0.10s CPU      0.11s WALL (      10 calls)

     Called by c_bands:
     init_us_2    :      1.33s CPU      1.35s WALL (    3496 calls)
     cegterg      :     46.24s CPU     47.02s WALL (    1520 calls)

     Called by sum_band:
     sum_band:bec :      0.16s CPU      0.16s WALL (    1520 calls)
     addusdens    :      3.02s CPU      3.24s WALL (      10 calls)

     Called by *egterg:
     h_psi        :     24.81s CPU     25.34s WALL (    5479 calls)
     s_psi        :      5.66s CPU      5.75s WALL (    5479 calls)
     g_psi        :      0.15s CPU      0.15s WALL (    3807 calls)
     cdiaghg      :      3.76s CPU      3.81s WALL (    5327 calls)

     Called by h_psi:
     h_psi:pot    :     24.68s CPU     25.20s WALL (    5479 calls)
     h_psi:calbec :      6.20s CPU      6.36s WALL (    5479 calls)
     vloc_psi     :     12.82s CPU     13.07s WALL (    5479 calls)
     add_vuspsi   :      5.63s CPU      5.73s WALL (    5479 calls)

     General routines
     calbec       :      9.73s CPU      9.94s WALL (    7759 calls)
     fft          :      0.26s CPU      0.26s WALL (     125 calls)
     ffts         :      0.00s CPU      0.00s WALL (      42 calls)
     fftw         :      8.85s CPU      9.04s WALL (  124128 calls)
     interpolate  :      0.05s CPU      0.05s WALL (      22 calls)

     Parallel routines

     PWSCF        :   1m 7.87s CPU   1m10.13s WALL


   This run was terminated on:  14:56:57  19Feb2020            

=------------------------------------------------------------------------------=
   JOB DONE.
=------------------------------------------------------------------------------=
