     Message from routine get_command_line:
     unexpected argument # 2     :-input

     Program PWSCF v.6.4.1 starts on 19Feb2020 at 15: 8:26 

     This program is part of the open-source Quantum ESPRESSO suite
     for quantum simulation of materials; please cite
         "P. Giannozzi et al., J. Phys.:Condens. Matter 21 395502 (2009);
         "P. Giannozzi et al., J. Phys.:Condens. Matter 29 465901 (2017);
          URL http://www.quantum-espresso.org", 
     in publications or presentations arising from this work. More details at
     http://www.quantum-espresso.org/quote

     Parallel version (MPI), running on     1 processors

     MPI processes distributed on     1 nodes
     Waiting for input...
     Reading input from standard input

     Current dimensions of program PWSCF are:
     Max number of different atomic species (ntypx) = 10
     Max number of k-points (npk) =  40000
     Max angular momentum in pseudopotentials (lmaxx) =  3
               file Co.pz-nd-rrkjus.UPF: wavefunction(s)  4S 3D renormalized

     Subspace diagonalization in iterative solution of the eigenvalue problem:
     a serial algorithm will be used


     G-vector sticks info
     --------------------
     sticks:   dense  smooth     PW     G-vecs:    dense   smooth      PW
     Sum         517     253     85                15837     5275    1015



     bravais-lattice index     =            4
     lattice parameter (alat)  =       5.5200  a.u.
     unit-cell volume          =     237.8659 (a.u.)^3
     number of atoms/cell      =            2
     number of atomic types    =            1
     number of electrons       =        18.00
     number of Kohn-Sham states=           13
     kinetic-energy cutoff     =      30.0000  Ry
     charge density cutoff     =     250.0000  Ry
     convergence threshold     =      1.0E-08
     mixing beta               =       0.7000
     number of iterations used =            8  plain     mixing
     Exchange-correlation      =  SLA  PZ   NOGX NOGC ( 1  1  0  0 0 0)

     celldm(1)=   5.520000  celldm(2)=   0.000000  celldm(3)=   1.632993
     celldm(4)=   0.000000  celldm(5)=   0.000000  celldm(6)=   0.000000

     crystal axes: (cart. coord. in units of alat)
               a(1) = (   1.000000   0.000000   0.000000 )  
               a(2) = (  -0.500000   0.866025   0.000000 )  
               a(3) = (   0.000000   0.000000   1.632993 )  

     reciprocal axes: (cart. coord. in units 2 pi/alat)
               b(1) = (  1.000000  0.577350 -0.000000 )  
               b(2) = (  0.000000  1.154701  0.000000 )  
               b(3) = (  0.000000 -0.000000  0.612372 )  


     PseudoPot. # 1 for Co read from file:
     ./Co.pz-nd-rrkjus.UPF
     MD5 check sum: c80159f6ca3a93d3df3cfc6468bb3c3d
     Pseudo is Ultrasoft + core correction, Zval =  9.0
     Generated by new atomic code, or converted to UPF format
     Using radial grid of  961 points,  6 beta functions with: 
                l(1) =   0
                l(2) =   0
                l(3) =   1
                l(4) =   1
                l(5) =   2
                l(6) =   2
     Q(r) pseudized with 0 coefficients 


     atomic species   valence    mass     pseudopotential
        Co             9.00    58.93300     Co( 1.00)

     Starting magnetic structure 
     atomic species   magnetization
        Co           0.700

     24 Sym. Ops., with inversion, found (12 have fractional translation)



   Cartesian axes

     site n.     atom                  positions (alat units)
         1           Co  tau(   1) = (  -0.0000000   0.5773503   0.4082483  )
         2           Co  tau(   2) = (   0.5000000   0.2886751   1.2247449  )

     number of k points=    76  Marzari-Vanderbilt smearing, width (Ry)=  0.0300
                       cart. coord. in units 2pi/alat
        k(    1) = (   0.0000000   0.0000000   0.0000000), wk =   0.0011574
        k(    2) = (   0.0000000   0.0000000   0.1020621), wk =   0.0023148
        k(    3) = (   0.0000000   0.0000000   0.2041241), wk =   0.0023148
        k(    4) = (   0.0000000   0.0000000  -0.3061862), wk =   0.0011574
        k(    5) = (   0.0000000   0.0962250   0.0000000), wk =   0.0069444
        k(    6) = (   0.0000000   0.0962250   0.1020621), wk =   0.0138889
        k(    7) = (   0.0000000   0.0962250   0.2041241), wk =   0.0138889
        k(    8) = (   0.0000000   0.0962250  -0.3061862), wk =   0.0069444
        k(    9) = (   0.0000000   0.1924501   0.0000000), wk =   0.0069444
        k(   10) = (   0.0000000   0.1924501   0.1020621), wk =   0.0138889
        k(   11) = (   0.0000000   0.1924501   0.2041241), wk =   0.0138889
        k(   12) = (   0.0000000   0.1924501  -0.3061862), wk =   0.0069444
        k(   13) = (   0.0000000   0.2886751   0.0000000), wk =   0.0069444
        k(   14) = (   0.0000000   0.2886751   0.1020621), wk =   0.0138889
        k(   15) = (   0.0000000   0.2886751   0.2041241), wk =   0.0138889
        k(   16) = (   0.0000000   0.2886751  -0.3061862), wk =   0.0069444
        k(   17) = (   0.0000000   0.3849002   0.0000000), wk =   0.0069444
        k(   18) = (   0.0000000   0.3849002   0.1020621), wk =   0.0138889
        k(   19) = (   0.0000000   0.3849002   0.2041241), wk =   0.0138889
        k(   20) = (   0.0000000   0.3849002  -0.3061862), wk =   0.0069444
        k(   21) = (   0.0000000   0.4811252   0.0000000), wk =   0.0069444
        k(   22) = (   0.0000000   0.4811252   0.1020621), wk =   0.0138889
        k(   23) = (   0.0000000   0.4811252   0.2041241), wk =   0.0138889
        k(   24) = (   0.0000000   0.4811252  -0.3061862), wk =   0.0069444
        k(   25) = (   0.0000000  -0.5773503   0.0000000), wk =   0.0034722
        k(   26) = (   0.0000000  -0.5773503   0.1020621), wk =   0.0069444
        k(   27) = (   0.0000000  -0.5773503   0.2041241), wk =   0.0069444
        k(   28) = (   0.0000000  -0.5773503  -0.3061862), wk =   0.0034722
        k(   29) = (   0.0833333   0.1443376   0.0000000), wk =   0.0069444
        k(   30) = (   0.0833333   0.1443376   0.1020621), wk =   0.0138889
        k(   31) = (   0.0833333   0.1443376   0.2041241), wk =   0.0138889
        k(   32) = (   0.0833333   0.1443376  -0.3061862), wk =   0.0069444
        k(   33) = (   0.0833333   0.2405626   0.0000000), wk =   0.0138889
        k(   34) = (   0.0833333   0.2405626   0.1020621), wk =   0.0277778
        k(   35) = (   0.0833333   0.2405626   0.2041241), wk =   0.0277778
        k(   36) = (   0.0833333   0.2405626  -0.3061862), wk =   0.0138889
        k(   37) = (   0.0833333   0.3367877   0.0000000), wk =   0.0138889
        k(   38) = (   0.0833333   0.3367877   0.1020621), wk =   0.0277778
        k(   39) = (   0.0833333   0.3367877   0.2041241), wk =   0.0277778
        k(   40) = (   0.0833333   0.3367877  -0.3061862), wk =   0.0138889
        k(   41) = (   0.0833333   0.4330127   0.0000000), wk =   0.0138889
        k(   42) = (   0.0833333   0.4330127   0.1020621), wk =   0.0277778
        k(   43) = (   0.0833333   0.4330127   0.2041241), wk =   0.0277778
        k(   44) = (   0.0833333   0.4330127  -0.3061862), wk =   0.0138889
        k(   45) = (   0.0833333   0.5292377   0.0000000), wk =   0.0138889
        k(   46) = (   0.0833333   0.5292377   0.1020621), wk =   0.0277778
        k(   47) = (   0.0833333   0.5292377   0.2041241), wk =   0.0277778
        k(   48) = (   0.0833333   0.5292377  -0.3061862), wk =   0.0138889
        k(   49) = (   0.1666667   0.2886751   0.0000000), wk =   0.0069444
        k(   50) = (   0.1666667   0.2886751   0.1020621), wk =   0.0138889
        k(   51) = (   0.1666667   0.2886751   0.2041241), wk =   0.0138889
        k(   52) = (   0.1666667   0.2886751  -0.3061862), wk =   0.0069444
        k(   53) = (   0.1666667   0.3849002   0.0000000), wk =   0.0138889
        k(   54) = (   0.1666667   0.3849002   0.1020621), wk =   0.0277778
        k(   55) = (   0.1666667   0.3849002   0.2041241), wk =   0.0277778
        k(   56) = (   0.1666667   0.3849002  -0.3061862), wk =   0.0138889
        k(   57) = (   0.1666667   0.4811252   0.0000000), wk =   0.0138889
        k(   58) = (   0.1666667   0.4811252   0.1020621), wk =   0.0277778
        k(   59) = (   0.1666667   0.4811252   0.2041241), wk =   0.0277778
        k(   60) = (   0.1666667   0.4811252  -0.3061862), wk =   0.0138889
        k(   61) = (   0.1666667   0.5773503   0.0000000), wk =   0.0069444
        k(   62) = (   0.1666667   0.5773503   0.1020621), wk =   0.0138889
        k(   63) = (   0.1666667   0.5773503   0.2041241), wk =   0.0138889
        k(   64) = (   0.1666667   0.5773503  -0.3061862), wk =   0.0069444
        k(   65) = (   0.2500000   0.4330127   0.0000000), wk =   0.0069444
        k(   66) = (   0.2500000   0.4330127   0.1020621), wk =   0.0138889
        k(   67) = (   0.2500000   0.4330127   0.2041241), wk =   0.0138889
        k(   68) = (   0.2500000   0.4330127  -0.3061862), wk =   0.0069444
        k(   69) = (   0.2500000   0.5292377   0.0000000), wk =   0.0138889
        k(   70) = (   0.2500000   0.5292377   0.1020621), wk =   0.0277778
        k(   71) = (   0.2500000   0.5292377   0.2041241), wk =   0.0277778
        k(   72) = (   0.2500000   0.5292377  -0.3061862), wk =   0.0138889
        k(   73) = (   0.3333333   0.5773503   0.0000000), wk =   0.0023148
        k(   74) = (   0.3333333   0.5773503   0.1020621), wk =   0.0046296
        k(   75) = (   0.3333333   0.5773503   0.2041241), wk =   0.0046296
        k(   76) = (   0.3333333   0.5773503  -0.3061862), wk =   0.0023148

     Dense  grid:    15837 G-vectors     FFT dimensions: (  27,  27,  48)

     Smooth grid:     5275 G-vectors     FFT dimensions: (  20,  20,  32)

     Estimated max dynamical RAM per process >      85.52 MB
     Generating pointlists ...
     new r_m :   0.4125 (alat units)  2.2770 (a.u.) for type    1

     Check: negative core charge=   -0.000067

     Initial potential from superposition of free atoms

     starting charge   17.99923, renormalised to   18.00000
     Starting wfcs are   12 randomized atomic wfcs +    1 random wfcs

     total cpu time spent up to now is        3.2 secs

     Self-consistent Calculation

     iteration #  1     ecut=    30.00 Ry     beta= 0.70
     Davidson diagonalization with overlap
     ethr =  1.00E-02,  avg # of iterations =  3.2

     total cpu time spent up to now is       10.6 secs

     total energy              =    -147.40411681 Ry
     Harris-Foulkes estimate   =    -148.07170953 Ry
     estimated scf accuracy    <       1.41833740 Ry

     total magnetization       =     6.00 Bohr mag/cell
     absolute magnetization    =     6.04 Bohr mag/cell

     iteration #  2     ecut=    30.00 Ry     beta= 0.70
     Davidson diagonalization with overlap
     ethr =  7.88E-03,  avg # of iterations =  2.9

     total cpu time spent up to now is       18.6 secs

     total energy              =    -147.56099804 Ry
     Harris-Foulkes estimate   =    -149.08884649 Ry
     estimated scf accuracy    <       4.57469715 Ry

     total magnetization       =     2.67 Bohr mag/cell
     absolute magnetization    =     2.77 Bohr mag/cell

     iteration #  3     ecut=    30.00 Ry     beta= 0.70
     Davidson diagonalization with overlap
     ethr =  7.88E-03,  avg # of iterations =  2.2

     total cpu time spent up to now is       25.7 secs

     total energy              =    -148.19973462 Ry
     Harris-Foulkes estimate   =    -148.16948865 Ry
     estimated scf accuracy    <       0.04741364 Ry

     total magnetization       =     4.23 Bohr mag/cell
     absolute magnetization    =     4.46 Bohr mag/cell

     iteration #  4     ecut=    30.00 Ry     beta= 0.70
     Davidson diagonalization with overlap
     ethr =  2.63E-04,  avg # of iterations =  2.4

     total cpu time spent up to now is       31.9 secs

     total energy              =    -148.21157615 Ry
     Harris-Foulkes estimate   =    -148.21117988 Ry
     estimated scf accuracy    <       0.00122182 Ry

     total magnetization       =     3.86 Bohr mag/cell
     absolute magnetization    =     4.24 Bohr mag/cell

     iteration #  5     ecut=    30.00 Ry     beta= 0.70
     Davidson diagonalization with overlap
     ethr =  6.79E-06,  avg # of iterations =  3.1

     total cpu time spent up to now is       40.1 secs

     total energy              =    -148.21261406 Ry
     Harris-Foulkes estimate   =    -148.21258577 Ry
     estimated scf accuracy    <       0.00002811 Ry

     total magnetization       =     3.74 Bohr mag/cell
     absolute magnetization    =     4.15 Bohr mag/cell

     iteration #  6     ecut=    30.00 Ry     beta= 0.70
     Davidson diagonalization with overlap
     ethr =  1.56E-07,  avg # of iterations =  2.6

     total cpu time spent up to now is       46.7 secs

     total energy              =    -148.21263077 Ry
     Harris-Foulkes estimate   =    -148.21262388 Ry
     estimated scf accuracy    <       0.00000440 Ry

     total magnetization       =     3.75 Bohr mag/cell
     absolute magnetization    =     4.15 Bohr mag/cell

     iteration #  7     ecut=    30.00 Ry     beta= 0.70
     Davidson diagonalization with overlap
     ethr =  2.45E-08,  avg # of iterations =  2.3

     total cpu time spent up to now is       53.3 secs

     total energy              =    -148.21263324 Ry
     Harris-Foulkes estimate   =    -148.21263269 Ry
     estimated scf accuracy    <       0.00000087 Ry

     total magnetization       =     3.76 Bohr mag/cell
     absolute magnetization    =     4.15 Bohr mag/cell

     iteration #  8     ecut=    30.00 Ry     beta= 0.70
     Davidson diagonalization with overlap
     ethr =  4.81E-09,  avg # of iterations =  2.7

     total cpu time spent up to now is       60.7 secs

     total energy              =    -148.21263377 Ry
     Harris-Foulkes estimate   =    -148.21263378 Ry
     estimated scf accuracy    <       0.00000011 Ry

     total magnetization       =     3.75 Bohr mag/cell
     absolute magnetization    =     4.14 Bohr mag/cell

     iteration #  9     ecut=    30.00 Ry     beta= 0.70
     Davidson diagonalization with overlap
     ethr =  5.95E-10,  avg # of iterations =  2.5

     total cpu time spent up to now is       68.0 secs

     total energy              =    -148.21263381 Ry
     Harris-Foulkes estimate   =    -148.21263383 Ry
     estimated scf accuracy    <       0.00000005 Ry

     total magnetization       =     3.75 Bohr mag/cell
     absolute magnetization    =     4.14 Bohr mag/cell

     iteration # 10     ecut=    30.00 Ry     beta= 0.70
     Davidson diagonalization with overlap
     ethr =  3.00E-10,  avg # of iterations =  1.5

     Magnetic moment per site:
     atom:    1    charge:    7.9642    magn:    1.9600    constr:    0.0000
     atom:    2    charge:    7.9642    magn:    1.9600    constr:    0.0000

     total cpu time spent up to now is       73.4 secs

     End of self-consistent calculation

     Number of k-points >= 100: set verbosity='high' to print the bands.

     the Fermi energy is     6.9927 ev

!    total energy              =    -148.21263382 Ry
     Harris-Foulkes estimate   =    -148.21263382 Ry
     estimated scf accuracy    <          2.5E-10 Ry

     The total energy is the sum of the following terms:

     one-electron contribution =     -18.12996801 Ry
     hartree contribution      =      29.42539295 Ry
     xc contribution           =     -64.36716800 Ry
     ewald contribution        =     -95.14150284 Ry
     smearing contrib. (-TS)   =       0.00061208 Ry

     total magnetization       =     3.75 Bohr mag/cell
     absolute magnetization    =     4.14 Bohr mag/cell

     convergence has been achieved in  10 iterations

     Forces acting on atoms (cartesian axes, Ry/au):

     atom    1 type  1   force =     0.00000000    0.00000000    0.00000000
     atom    2 type  1   force =     0.00000000    0.00000000    0.00000000

     Total force =     0.000000     Total SCF correction =     0.000000


     Computing stress (Cartesian axis) and pressure

          total   stress  (Ry/bohr**3)                   (kbar)     P= -391.59
  -0.00267755   0.00000000   0.00000000       -393.88      0.00      0.00
   0.00000000  -0.00267755   0.00000000          0.00   -393.88      0.00
   0.00000000   0.00000000  -0.00263091          0.00      0.00   -387.02


     Writing output data file Co.HCP.save/

     init_run     :      2.93s CPU      2.99s WALL (       1 calls)
     electrons    :     69.01s CPU     70.17s WALL (       1 calls)
     forces       :      1.73s CPU      1.78s WALL (       1 calls)
     stress       :      2.83s CPU      2.91s WALL (       1 calls)

     Called by init_run:
     wfcinit      :      1.74s CPU      1.78s WALL (       1 calls)
     potinit      :      0.08s CPU      0.08s WALL (       1 calls)
     hinit0       :      0.88s CPU      0.88s WALL (       1 calls)

     Called by electrons:
     c_bands      :     56.35s CPU     56.94s WALL (      10 calls)
     sum_band     :     10.18s CPU     10.46s WALL (      10 calls)
     v_of_rho     :      0.33s CPU      0.33s WALL (      11 calls)
     newd         :      2.23s CPU      2.52s WALL (      11 calls)
     mix_rho      :      0.10s CPU      0.10s WALL (      10 calls)

     Called by c_bands:
     init_us_2    :      1.55s CPU      1.57s WALL (    3496 calls)
     cegterg      :     53.06s CPU     53.63s WALL (    1520 calls)

     Called by sum_band:
     sum_band:bec :      0.15s CPU      0.15s WALL (    1520 calls)
     addusdens    :      3.45s CPU      3.66s WALL (      10 calls)

     Called by *egterg:
     h_psi        :     27.67s CPU     28.06s WALL (    5511 calls)
     s_psi        :      6.59s CPU      6.64s WALL (    5511 calls)
     g_psi        :      0.19s CPU      0.19s WALL (    3839 calls)
     cdiaghg      :      4.10s CPU      4.14s WALL (    5359 calls)

     Called by h_psi:
     h_psi:pot    :     27.53s CPU     27.92s WALL (    5511 calls)
     h_psi:calbec :      7.24s CPU      7.36s WALL (    5511 calls)
     vloc_psi     :     13.62s CPU     13.84s WALL (    5511 calls)
     add_vuspsi   :      6.62s CPU      6.69s WALL (    5511 calls)

     General routines
     calbec       :     11.10s CPU     11.27s WALL (    7791 calls)
     fft          :      0.25s CPU      0.25s WALL (     125 calls)
     ffts         :      0.01s CPU      0.01s WALL (      42 calls)
     fftw         :      9.29s CPU      9.43s WALL (  127206 calls)
     interpolate  :      0.05s CPU      0.05s WALL (      22 calls)

     Parallel routines

     PWSCF        :   1m16.87s CPU   1m18.29s WALL


   This run was terminated on:  15: 9:45  19Feb2020            

=------------------------------------------------------------------------------=
   JOB DONE.
=------------------------------------------------------------------------------=
