     Message from routine get_command_line:
     unexpected argument # 2     :-input

     Program PWSCF v.6.4.1 starts on 19Feb2020 at 13:39:56 

     This program is part of the open-source Quantum ESPRESSO suite
     for quantum simulation of materials; please cite
         "P. Giannozzi et al., J. Phys.:Condens. Matter 21 395502 (2009);
         "P. Giannozzi et al., J. Phys.:Condens. Matter 29 465901 (2017);
          URL http://www.quantum-espresso.org", 
     in publications or presentations arising from this work. More details at
     http://www.quantum-espresso.org/quote

     Parallel version (MPI), running on     1 processors

     MPI processes distributed on     1 nodes
     Waiting for input...
     Reading input from standard input

     Current dimensions of program PWSCF are:
     Max number of different atomic species (ntypx) = 10
     Max number of k-points (npk) =  40000
     Max angular momentum in pseudopotentials (lmaxx) =  3
               file Co.pz-nd-rrkjus.UPF: wavefunction(s)  4S 3D renormalized

     Subspace diagonalization in iterative solution of the eigenvalue problem:
     a serial algorithm will be used


     G-vector sticks info
     --------------------
     sticks:   dense  smooth     PW     G-vecs:    dense   smooth      PW
     Sum         295     139     55                 6627     2189     465



     bravais-lattice index     =            4
     lattice parameter (alat)  =       4.1200  a.u.
     unit-cell volume          =      98.9024 (a.u.)^3
     number of atoms/cell      =            2
     number of atomic types    =            1
     number of electrons       =        18.00
     number of Kohn-Sham states=           13
     kinetic-energy cutoff     =      30.0000  Ry
     charge density cutoff     =     250.0000  Ry
     convergence threshold     =      1.0E-08
     mixing beta               =       0.7000
     number of iterations used =            8  plain     mixing
     Exchange-correlation      =  SLA  PZ   NOGX NOGC ( 1  1  0  0 0 0)

     celldm(1)=   4.120000  celldm(2)=   0.000000  celldm(3)=   1.632993
     celldm(4)=   0.000000  celldm(5)=   0.000000  celldm(6)=   0.000000

     crystal axes: (cart. coord. in units of alat)
               a(1) = (   1.000000   0.000000   0.000000 )  
               a(2) = (  -0.500000   0.866025   0.000000 )  
               a(3) = (   0.000000   0.000000   1.632993 )  

     reciprocal axes: (cart. coord. in units 2 pi/alat)
               b(1) = (  1.000000  0.577350 -0.000000 )  
               b(2) = (  0.000000  1.154701  0.000000 )  
               b(3) = (  0.000000 -0.000000  0.612372 )  


     PseudoPot. # 1 for Co read from file:
     ./Co.pz-nd-rrkjus.UPF
     MD5 check sum: c80159f6ca3a93d3df3cfc6468bb3c3d
     Pseudo is Ultrasoft + core correction, Zval =  9.0
     Generated by new atomic code, or converted to UPF format
     Using radial grid of  961 points,  6 beta functions with: 
                l(1) =   0
                l(2) =   0
                l(3) =   1
                l(4) =   1
                l(5) =   2
                l(6) =   2
     Q(r) pseudized with 0 coefficients 


     atomic species   valence    mass     pseudopotential
        Co             9.00    58.93300     Co( 1.00)

     Starting magnetic structure 
     atomic species   magnetization
        Co           0.700

     24 Sym. Ops., with inversion, found (12 have fractional translation)



   Cartesian axes

     site n.     atom                  positions (alat units)
         1           Co  tau(   1) = (  -0.0000000   0.5773503   0.4082483  )
         2           Co  tau(   2) = (   0.5000000   0.2886751   1.2247449  )

     number of k points=    76  Marzari-Vanderbilt smearing, width (Ry)=  0.0300
                       cart. coord. in units 2pi/alat
        k(    1) = (   0.0000000   0.0000000   0.0000000), wk =   0.0011574
        k(    2) = (   0.0000000   0.0000000   0.1020621), wk =   0.0023148
        k(    3) = (   0.0000000   0.0000000   0.2041241), wk =   0.0023148
        k(    4) = (   0.0000000   0.0000000  -0.3061862), wk =   0.0011574
        k(    5) = (   0.0000000   0.0962250   0.0000000), wk =   0.0069444
        k(    6) = (   0.0000000   0.0962250   0.1020621), wk =   0.0138889
        k(    7) = (   0.0000000   0.0962250   0.2041241), wk =   0.0138889
        k(    8) = (   0.0000000   0.0962250  -0.3061862), wk =   0.0069444
        k(    9) = (   0.0000000   0.1924501   0.0000000), wk =   0.0069444
        k(   10) = (   0.0000000   0.1924501   0.1020621), wk =   0.0138889
        k(   11) = (   0.0000000   0.1924501   0.2041241), wk =   0.0138889
        k(   12) = (   0.0000000   0.1924501  -0.3061862), wk =   0.0069444
        k(   13) = (   0.0000000   0.2886751   0.0000000), wk =   0.0069444
        k(   14) = (   0.0000000   0.2886751   0.1020621), wk =   0.0138889
        k(   15) = (   0.0000000   0.2886751   0.2041241), wk =   0.0138889
        k(   16) = (   0.0000000   0.2886751  -0.3061862), wk =   0.0069444
        k(   17) = (   0.0000000   0.3849002   0.0000000), wk =   0.0069444
        k(   18) = (   0.0000000   0.3849002   0.1020621), wk =   0.0138889
        k(   19) = (   0.0000000   0.3849002   0.2041241), wk =   0.0138889
        k(   20) = (   0.0000000   0.3849002  -0.3061862), wk =   0.0069444
        k(   21) = (   0.0000000   0.4811252   0.0000000), wk =   0.0069444
        k(   22) = (   0.0000000   0.4811252   0.1020621), wk =   0.0138889
        k(   23) = (   0.0000000   0.4811252   0.2041241), wk =   0.0138889
        k(   24) = (   0.0000000   0.4811252  -0.3061862), wk =   0.0069444
        k(   25) = (   0.0000000  -0.5773503   0.0000000), wk =   0.0034722
        k(   26) = (   0.0000000  -0.5773503   0.1020621), wk =   0.0069444
        k(   27) = (   0.0000000  -0.5773503   0.2041241), wk =   0.0069444
        k(   28) = (   0.0000000  -0.5773503  -0.3061862), wk =   0.0034722
        k(   29) = (   0.0833333   0.1443376   0.0000000), wk =   0.0069444
        k(   30) = (   0.0833333   0.1443376   0.1020621), wk =   0.0138889
        k(   31) = (   0.0833333   0.1443376   0.2041241), wk =   0.0138889
        k(   32) = (   0.0833333   0.1443376  -0.3061862), wk =   0.0069444
        k(   33) = (   0.0833333   0.2405626   0.0000000), wk =   0.0138889
        k(   34) = (   0.0833333   0.2405626   0.1020621), wk =   0.0277778
        k(   35) = (   0.0833333   0.2405626   0.2041241), wk =   0.0277778
        k(   36) = (   0.0833333   0.2405626  -0.3061862), wk =   0.0138889
        k(   37) = (   0.0833333   0.3367877   0.0000000), wk =   0.0138889
        k(   38) = (   0.0833333   0.3367877   0.1020621), wk =   0.0277778
        k(   39) = (   0.0833333   0.3367877   0.2041241), wk =   0.0277778
        k(   40) = (   0.0833333   0.3367877  -0.3061862), wk =   0.0138889
        k(   41) = (   0.0833333   0.4330127   0.0000000), wk =   0.0138889
        k(   42) = (   0.0833333   0.4330127   0.1020621), wk =   0.0277778
        k(   43) = (   0.0833333   0.4330127   0.2041241), wk =   0.0277778
        k(   44) = (   0.0833333   0.4330127  -0.3061862), wk =   0.0138889
        k(   45) = (   0.0833333   0.5292377   0.0000000), wk =   0.0138889
        k(   46) = (   0.0833333   0.5292377   0.1020621), wk =   0.0277778
        k(   47) = (   0.0833333   0.5292377   0.2041241), wk =   0.0277778
        k(   48) = (   0.0833333   0.5292377  -0.3061862), wk =   0.0138889
        k(   49) = (   0.1666667   0.2886751   0.0000000), wk =   0.0069444
        k(   50) = (   0.1666667   0.2886751   0.1020621), wk =   0.0138889
        k(   51) = (   0.1666667   0.2886751   0.2041241), wk =   0.0138889
        k(   52) = (   0.1666667   0.2886751  -0.3061862), wk =   0.0069444
        k(   53) = (   0.1666667   0.3849002   0.0000000), wk =   0.0138889
        k(   54) = (   0.1666667   0.3849002   0.1020621), wk =   0.0277778
        k(   55) = (   0.1666667   0.3849002   0.2041241), wk =   0.0277778
        k(   56) = (   0.1666667   0.3849002  -0.3061862), wk =   0.0138889
        k(   57) = (   0.1666667   0.4811252   0.0000000), wk =   0.0138889
        k(   58) = (   0.1666667   0.4811252   0.1020621), wk =   0.0277778
        k(   59) = (   0.1666667   0.4811252   0.2041241), wk =   0.0277778
        k(   60) = (   0.1666667   0.4811252  -0.3061862), wk =   0.0138889
        k(   61) = (   0.1666667   0.5773503   0.0000000), wk =   0.0069444
        k(   62) = (   0.1666667   0.5773503   0.1020621), wk =   0.0138889
        k(   63) = (   0.1666667   0.5773503   0.2041241), wk =   0.0138889
        k(   64) = (   0.1666667   0.5773503  -0.3061862), wk =   0.0069444
        k(   65) = (   0.2500000   0.4330127   0.0000000), wk =   0.0069444
        k(   66) = (   0.2500000   0.4330127   0.1020621), wk =   0.0138889
        k(   67) = (   0.2500000   0.4330127   0.2041241), wk =   0.0138889
        k(   68) = (   0.2500000   0.4330127  -0.3061862), wk =   0.0069444
        k(   69) = (   0.2500000   0.5292377   0.0000000), wk =   0.0138889
        k(   70) = (   0.2500000   0.5292377   0.1020621), wk =   0.0277778
        k(   71) = (   0.2500000   0.5292377   0.2041241), wk =   0.0277778
        k(   72) = (   0.2500000   0.5292377  -0.3061862), wk =   0.0138889
        k(   73) = (   0.3333333   0.5773503   0.0000000), wk =   0.0023148
        k(   74) = (   0.3333333   0.5773503   0.1020621), wk =   0.0046296
        k(   75) = (   0.3333333   0.5773503   0.2041241), wk =   0.0046296
        k(   76) = (   0.3333333   0.5773503  -0.3061862), wk =   0.0023148

     Dense  grid:     6627 G-vectors     FFT dimensions: (  24,  24,  36)

     Smooth grid:     2189 G-vectors     FFT dimensions: (  15,  15,  24)

     Estimated max dynamical RAM per process >      36.74 MB
     Generating pointlists ...
     new r_m :   0.4125 (alat units)  1.6995 (a.u.) for type    1

     Check: negative core charge=   -0.000004

     Initial potential from superposition of free atoms

     starting charge   17.99923, renormalised to   18.00000
     Starting wfcs are   12 randomized atomic wfcs +    1 random wfcs

     total cpu time spent up to now is        2.4 secs

     Self-consistent Calculation

     iteration #  1     ecut=    30.00 Ry     beta= 0.70
     Davidson diagonalization with overlap
     ethr =  1.00E-02,  avg # of iterations =  3.5

     total cpu time spent up to now is        7.3 secs

     total energy              =    -147.94538473 Ry
     Harris-Foulkes estimate   =    -147.81538273 Ry
     estimated scf accuracy    <       1.00976276 Ry

     total magnetization       =     4.12 Bohr mag/cell
     absolute magnetization    =     4.12 Bohr mag/cell

     iteration #  2     ecut=    30.00 Ry     beta= 0.70
     Davidson diagonalization with overlap
     ethr =  5.61E-03,  avg # of iterations =  2.0

     total cpu time spent up to now is       11.3 secs

     total energy              =    -148.15158874 Ry
     Harris-Foulkes estimate   =    -148.31251153 Ry
     estimated scf accuracy    <       0.47167951 Ry

     total magnetization       =     3.06 Bohr mag/cell
     absolute magnetization    =     3.16 Bohr mag/cell

     iteration #  3     ecut=    30.00 Ry     beta= 0.70
     Davidson diagonalization with overlap
     ethr =  2.62E-03,  avg # of iterations =  2.0

     total cpu time spent up to now is       14.4 secs

     total energy              =    -148.27872563 Ry
     Harris-Foulkes estimate   =    -148.26294362 Ry
     estimated scf accuracy    <       0.05148573 Ry

     total magnetization       =     3.05 Bohr mag/cell
     absolute magnetization    =     3.15 Bohr mag/cell

     iteration #  4     ecut=    30.00 Ry     beta= 0.70
     Davidson diagonalization with overlap
     ethr =  2.86E-04,  avg # of iterations =  1.2

     total cpu time spent up to now is       17.4 secs

     total energy              =    -148.29341934 Ry
     Harris-Foulkes estimate   =    -148.29574707 Ry
     estimated scf accuracy    <       0.00638570 Ry

     total magnetization       =     2.18 Bohr mag/cell
     absolute magnetization    =     2.35 Bohr mag/cell

     iteration #  5     ecut=    30.00 Ry     beta= 0.70
     Davidson diagonalization with overlap
     ethr =  3.55E-05,  avg # of iterations =  1.1

     total cpu time spent up to now is       20.1 secs

     total energy              =    -148.29798926 Ry
     Harris-Foulkes estimate   =    -148.29386248 Ry
     estimated scf accuracy    <       0.00798444 Ry

     total magnetization       =     2.29 Bohr mag/cell
     absolute magnetization    =     2.47 Bohr mag/cell

     iteration #  6     ecut=    30.00 Ry     beta= 0.70
     Davidson diagonalization with overlap
     ethr =  3.55E-05,  avg # of iterations =  1.2

     total cpu time spent up to now is       22.7 secs

     total energy              =    -148.29790596 Ry
     Harris-Foulkes estimate   =    -148.30122501 Ry
     estimated scf accuracy    <       0.00439039 Ry

     total magnetization       =     1.87 Bohr mag/cell
     absolute magnetization    =     2.01 Bohr mag/cell

     iteration #  7     ecut=    30.00 Ry     beta= 0.70
     Davidson diagonalization with overlap
     ethr =  2.44E-05,  avg # of iterations =  2.1

     total cpu time spent up to now is       25.9 secs

     total energy              =    -148.30681348 Ry
     Harris-Foulkes estimate   =    -148.30679361 Ry
     estimated scf accuracy    <       0.00100996 Ry

     total magnetization       =     1.13 Bohr mag/cell
     absolute magnetization    =     1.20 Bohr mag/cell

     iteration #  8     ecut=    30.00 Ry     beta= 0.70
     Davidson diagonalization with overlap
     ethr =  5.61E-06,  avg # of iterations =  1.0

     total cpu time spent up to now is       28.6 secs

     total energy              =    -148.30619452 Ry
     Harris-Foulkes estimate   =    -148.30683344 Ry
     estimated scf accuracy    <       0.00095998 Ry

     total magnetization       =     1.13 Bohr mag/cell
     absolute magnetization    =     1.20 Bohr mag/cell

     iteration #  9     ecut=    30.00 Ry     beta= 0.70
     Davidson diagonalization with overlap
     ethr =  5.33E-06,  avg # of iterations =  1.0

     total cpu time spent up to now is       31.1 secs

     total energy              =    -148.30659248 Ry
     Harris-Foulkes estimate   =    -148.30643135 Ry
     estimated scf accuracy    <       0.00152880 Ry

     total magnetization       =     1.25 Bohr mag/cell
     absolute magnetization    =     1.33 Bohr mag/cell

     iteration # 10     ecut=    30.00 Ry     beta= 0.70
     Davidson diagonalization with overlap
     ethr =  5.33E-06,  avg # of iterations =  1.0

     total cpu time spent up to now is       33.6 secs

     total energy              =    -148.30755222 Ry
     Harris-Foulkes estimate   =    -148.30726612 Ry
     estimated scf accuracy    <       0.00182194 Ry

     total magnetization       =     1.04 Bohr mag/cell
     absolute magnetization    =     1.10 Bohr mag/cell

     iteration # 11     ecut=    30.00 Ry     beta= 0.70
     Davidson diagonalization with overlap
     ethr =  5.33E-06,  avg # of iterations =  1.0

     total cpu time spent up to now is       36.2 secs

     total energy              =    -148.30737697 Ry
     Harris-Foulkes estimate   =    -148.30766801 Ry
     estimated scf accuracy    <       0.00278167 Ry

     total magnetization       =     0.95 Bohr mag/cell
     absolute magnetization    =     1.01 Bohr mag/cell

     iteration # 12     ecut=    30.00 Ry     beta= 0.70
     Davidson diagonalization with overlap
     ethr =  5.33E-06,  avg # of iterations =  1.0

     total cpu time spent up to now is       38.8 secs

     total energy              =    -148.30786129 Ry
     Harris-Foulkes estimate   =    -148.30740560 Ry
     estimated scf accuracy    <       0.00174371 Ry

     total magnetization       =     0.97 Bohr mag/cell
     absolute magnetization    =     1.04 Bohr mag/cell

     iteration # 13     ecut=    30.00 Ry     beta= 0.70
     Davidson diagonalization with overlap
     ethr =  5.33E-06,  avg # of iterations =  1.5

     total cpu time spent up to now is       41.5 secs

     total energy              =    -148.30908249 Ry
     Harris-Foulkes estimate   =    -148.30798016 Ry
     estimated scf accuracy    <       0.00459745 Ry

     total magnetization       =     0.98 Bohr mag/cell
     absolute magnetization    =     1.05 Bohr mag/cell

     iteration # 14     ecut=    30.00 Ry     beta= 0.70
     Davidson diagonalization with overlap
     ethr =  5.33E-06,  avg # of iterations =  2.0

     total cpu time spent up to now is       44.8 secs

     total energy              =    -148.30945354 Ry
     Harris-Foulkes estimate   =    -148.30933801 Ry
     estimated scf accuracy    <       0.01136415 Ry

     total magnetization       =     0.99 Bohr mag/cell
     absolute magnetization    =     1.07 Bohr mag/cell

     iteration # 15     ecut=    30.00 Ry     beta= 0.70
     Davidson diagonalization with overlap
     ethr =  5.33E-06,  avg # of iterations =  1.0

     total cpu time spent up to now is       47.4 secs

     total energy              =    -148.30960351 Ry
     Harris-Foulkes estimate   =    -148.30945965 Ry
     estimated scf accuracy    <       0.01198514 Ry

     total magnetization       =     0.99 Bohr mag/cell
     absolute magnetization    =     1.07 Bohr mag/cell

     iteration # 16     ecut=    30.00 Ry     beta= 0.70
     Davidson diagonalization with overlap
     ethr =  5.33E-06,  avg # of iterations =  1.0

     total cpu time spent up to now is       50.2 secs

     total energy              =    -148.30338961 Ry
     Harris-Foulkes estimate   =    -148.30960627 Ry
     estimated scf accuracy    <       0.01277131 Ry

     total magnetization       =     0.99 Bohr mag/cell
     absolute magnetization    =     1.07 Bohr mag/cell

     iteration # 17     ecut=    30.00 Ry     beta= 0.70
     Davidson diagonalization with overlap
     ethr =  5.33E-06,  avg # of iterations =  2.6

     total cpu time spent up to now is       54.2 secs

     total energy              =    -148.30776307 Ry
     Harris-Foulkes estimate   =    -148.30770139 Ry
     estimated scf accuracy    <       0.00015088 Ry

     total magnetization       =     0.56 Bohr mag/cell
     absolute magnetization    =     0.61 Bohr mag/cell

     iteration # 18     ecut=    30.00 Ry     beta= 0.70
     Davidson diagonalization with overlap
     ethr =  8.38E-07,  avg # of iterations =  1.0

     total cpu time spent up to now is       56.7 secs

     total energy              =    -148.30743844 Ry
     Harris-Foulkes estimate   =    -148.30776814 Ry
     estimated scf accuracy    <       0.00010456 Ry

     total magnetization       =     0.58 Bohr mag/cell
     absolute magnetization    =     0.61 Bohr mag/cell

     iteration # 19     ecut=    30.00 Ry     beta= 0.70
     Davidson diagonalization with overlap
     ethr =  5.81E-07,  avg # of iterations =  1.7

     total cpu time spent up to now is       59.5 secs

     total energy              =    -148.30675126 Ry
     Harris-Foulkes estimate   =    -148.30761330 Ry
     estimated scf accuracy    <       0.00018906 Ry

     total magnetization       =     0.69 Bohr mag/cell
     absolute magnetization    =     0.73 Bohr mag/cell

     iteration # 20     ecut=    30.00 Ry     beta= 0.70
     Davidson diagonalization with overlap
     ethr =  5.81E-07,  avg # of iterations =  2.7

     total cpu time spent up to now is       63.4 secs

     total energy              =    -148.30792512 Ry
     Harris-Foulkes estimate   =    -148.30791592 Ry
     estimated scf accuracy    <       0.00003168 Ry

     total magnetization       =     0.39 Bohr mag/cell
     absolute magnetization    =     0.42 Bohr mag/cell

     iteration # 21     ecut=    30.00 Ry     beta= 0.70
     Davidson diagonalization with overlap
     ethr =  1.76E-07,  avg # of iterations =  1.0

     total cpu time spent up to now is       65.8 secs

     total energy              =    -148.30720165 Ry
     Harris-Foulkes estimate   =    -148.30793238 Ry
     estimated scf accuracy    <       0.00002753 Ry

     total magnetization       =     0.37 Bohr mag/cell
     absolute magnetization    =     0.39 Bohr mag/cell

     iteration # 22     ecut=    30.00 Ry     beta= 0.70
     Davidson diagonalization with overlap
     ethr =  1.53E-07,  avg # of iterations =  3.0

     total cpu time spent up to now is       70.2 secs

     total energy              =    -148.30800408 Ry
     Harris-Foulkes estimate   =    -148.30803451 Ry
     estimated scf accuracy    <       0.00000288 Ry

     total magnetization       =     0.11 Bohr mag/cell
     absolute magnetization    =     0.12 Bohr mag/cell

     iteration # 23     ecut=    30.00 Ry     beta= 0.70
     Davidson diagonalization with overlap
     ethr =  1.60E-08,  avg # of iterations =  2.8

     total cpu time spent up to now is       74.3 secs

     total energy              =    -148.30804447 Ry
     Harris-Foulkes estimate   =    -148.30804285 Ry
     estimated scf accuracy    <       0.00000281 Ry

     total magnetization       =     0.06 Bohr mag/cell
     absolute magnetization    =     0.06 Bohr mag/cell

     iteration # 24     ecut=    30.00 Ry     beta= 0.70
     Davidson diagonalization with overlap
     ethr =  1.56E-08,  avg # of iterations =  1.1

     total cpu time spent up to now is       76.8 secs

     total energy              =    -148.30801526 Ry
     Harris-Foulkes estimate   =    -148.30804512 Ry
     estimated scf accuracy    <       0.00000166 Ry

     total magnetization       =     0.05 Bohr mag/cell
     absolute magnetization    =     0.05 Bohr mag/cell

     iteration # 25     ecut=    30.00 Ry     beta= 0.70
     Davidson diagonalization with overlap
     ethr =  9.21E-09,  avg # of iterations =  2.9

     total cpu time spent up to now is       81.2 secs

     total energy              =    -148.30804387 Ry
     Harris-Foulkes estimate   =    -148.30804687 Ry
     estimated scf accuracy    <       0.00000004 Ry

     total magnetization       =     0.00 Bohr mag/cell
     absolute magnetization    =     0.00 Bohr mag/cell

     iteration # 26     ecut=    30.00 Ry     beta= 0.70
     Davidson diagonalization with overlap
     ethr =  2.29E-10,  avg # of iterations =  3.1

     total cpu time spent up to now is       86.0 secs

     total energy              =    -148.30804451 Ry
     Harris-Foulkes estimate   =    -148.30804682 Ry
     estimated scf accuracy    <       0.00000004 Ry

     total magnetization       =    -0.01 Bohr mag/cell
     absolute magnetization    =     0.01 Bohr mag/cell

     iteration # 27     ecut=    30.00 Ry     beta= 0.70
     Davidson diagonalization with overlap
     ethr =  2.29E-10,  avg # of iterations =  3.0

     Magnetic moment per site:
     atom:    1    charge:    7.4083    magn:    0.0002    constr:    0.0000
     atom:    2    charge:    7.4083    magn:    0.0002    constr:    0.0000

     total cpu time spent up to now is       90.8 secs

     End of self-consistent calculation

     Number of k-points >= 100: set verbosity='high' to print the bands.

     the Fermi energy is    22.7297 ev

!    total energy              =    -148.30804701 Ry
     Harris-Foulkes estimate   =    -148.30804701 Ry
     estimated scf accuracy    <          1.4E-09 Ry

     The total energy is the sum of the following terms:

     one-electron contribution =      29.13284341 Ry
     hartree contribution      =      15.59119748 Ry
     xc contribution           =     -65.55727891 Ry
     ewald contribution        =    -127.47113972 Ry
     smearing contrib. (-TS)   =      -0.00366926 Ry

     total magnetization       =     0.00 Bohr mag/cell
     absolute magnetization    =     0.00 Bohr mag/cell

     convergence has been achieved in  27 iterations

     Forces acting on atoms (cartesian axes, Ry/au):

     atom    1 type  1   force =     0.00000000    0.00000000    0.00000000
     atom    2 type  1   force =     0.00000000   -0.00000000    0.00000000

     Total force =     0.000000     Total SCF correction =     0.000000


     Computing stress (Cartesian axis) and pressure

          total   stress  (Ry/bohr**3)                   (kbar)     P= 1537.99
   0.01065079   0.00000000   0.00000000       1566.79      0.00      0.00
   0.00000000   0.01065079  -0.00000000          0.00   1566.79     -0.00
   0.00000000  -0.00000000   0.01006351          0.00     -0.00   1480.39


     Writing output data file Co.HCP.save/

     init_run     :      2.01s CPU      2.13s WALL (       1 calls)
     electrons    :     85.65s CPU     88.38s WALL (       1 calls)
     forces       :      0.77s CPU      0.78s WALL (       1 calls)
     stress       :      1.23s CPU      1.26s WALL (       1 calls)

     Called by init_run:
     wfcinit      :      1.00s CPU      1.09s WALL (       1 calls)
     potinit      :      0.07s CPU      0.07s WALL (       1 calls)
     hinit0       :      0.82s CPU      0.83s WALL (       1 calls)

     Called by electrons:
     c_bands      :     69.55s CPU     71.78s WALL (      27 calls)
     sum_band     :     12.95s CPU     13.42s WALL (      27 calls)
     v_of_rho     :      0.54s CPU      0.55s WALL (      28 calls)
     newd         :      2.48s CPU      2.52s WALL (      28 calls)
     mix_rho      :      0.17s CPU      0.17s WALL (      27 calls)

     Called by c_bands:
     init_us_2    :      1.80s CPU      1.87s WALL (    8664 calls)
     cegterg      :     65.49s CPU     67.62s WALL (    4104 calls)

     Called by sum_band:
     sum_band:bec :      0.43s CPU      0.45s WALL (    4104 calls)
     addusdens    :      3.98s CPU      4.07s WALL (      27 calls)

     Called by *egterg:
     h_psi        :     33.22s CPU     34.46s WALL (   11653 calls)
     s_psi        :      7.28s CPU      7.58s WALL (   11653 calls)
     g_psi        :      0.19s CPU      0.19s WALL (    7397 calls)
     cdiaghg      :      8.36s CPU      8.61s WALL (   11501 calls)

     Called by h_psi:
     h_psi:pot    :     33.05s CPU     34.28s WALL (   11653 calls)
     h_psi:calbec :      8.06s CPU      8.39s WALL (   11653 calls)
     vloc_psi     :     17.53s CPU     18.14s WALL (   11653 calls)
     add_vuspsi   :      7.36s CPU      7.68s WALL (   11653 calls)

     General routines
     calbec       :     11.70s CPU     12.19s WALL (   16517 calls)
     fft          :      0.34s CPU      0.34s WALL (     312 calls)
     ffts         :      0.03s CPU      0.03s WALL (     110 calls)
     fftw         :     13.21s CPU     13.68s WALL (  316142 calls)
     interpolate  :      0.09s CPU      0.09s WALL (      56 calls)

     Parallel routines

     PWSCF        :   1m30.05s CPU   1m32.98s WALL


   This run was terminated on:  13:41:29  19Feb2020            

=------------------------------------------------------------------------------=
   JOB DONE.
=------------------------------------------------------------------------------=
