     Message from routine get_command_line:
     unexpected argument # 2     :-input

     Program PWSCF v.6.4.1 starts on 19Feb2020 at 15:24:54 

     This program is part of the open-source Quantum ESPRESSO suite
     for quantum simulation of materials; please cite
         "P. Giannozzi et al., J. Phys.:Condens. Matter 21 395502 (2009);
         "P. Giannozzi et al., J. Phys.:Condens. Matter 29 465901 (2017);
          URL http://www.quantum-espresso.org", 
     in publications or presentations arising from this work. More details at
     http://www.quantum-espresso.org/quote

     Parallel version (MPI), running on     1 processors

     MPI processes distributed on     1 nodes
     Waiting for input...
     Reading input from standard input

     Current dimensions of program PWSCF are:
     Max number of different atomic species (ntypx) = 10
     Max number of k-points (npk) =  40000
     Max angular momentum in pseudopotentials (lmaxx) =  3
               file Co.pz-nd-rrkjus.UPF: wavefunction(s)  4S 3D renormalized

     Subspace diagonalization in iterative solution of the eigenvalue problem:
     a serial algorithm will be used


     G-vector sticks info
     --------------------
     sticks:   dense  smooth     PW     G-vecs:    dense   smooth      PW
     Sum         571     271     85                17885     5907    1099



     bravais-lattice index     =            4
     lattice parameter (alat)  =       5.7400  a.u.
     unit-cell volume          =     267.4550 (a.u.)^3
     number of atoms/cell      =            2
     number of atomic types    =            1
     number of electrons       =        18.00
     number of Kohn-Sham states=           13
     kinetic-energy cutoff     =      30.0000  Ry
     charge density cutoff     =     250.0000  Ry
     convergence threshold     =      1.0E-08
     mixing beta               =       0.7000
     number of iterations used =            8  plain     mixing
     Exchange-correlation      =  SLA  PZ   NOGX NOGC ( 1  1  0  0 0 0)

     celldm(1)=   5.740000  celldm(2)=   0.000000  celldm(3)=   1.632993
     celldm(4)=   0.000000  celldm(5)=   0.000000  celldm(6)=   0.000000

     crystal axes: (cart. coord. in units of alat)
               a(1) = (   1.000000   0.000000   0.000000 )  
               a(2) = (  -0.500000   0.866025   0.000000 )  
               a(3) = (   0.000000   0.000000   1.632993 )  

     reciprocal axes: (cart. coord. in units 2 pi/alat)
               b(1) = (  1.000000  0.577350 -0.000000 )  
               b(2) = (  0.000000  1.154701  0.000000 )  
               b(3) = (  0.000000 -0.000000  0.612372 )  


     PseudoPot. # 1 for Co read from file:
     ./Co.pz-nd-rrkjus.UPF
     MD5 check sum: c80159f6ca3a93d3df3cfc6468bb3c3d
     Pseudo is Ultrasoft + core correction, Zval =  9.0
     Generated by new atomic code, or converted to UPF format
     Using radial grid of  961 points,  6 beta functions with: 
                l(1) =   0
                l(2) =   0
                l(3) =   1
                l(4) =   1
                l(5) =   2
                l(6) =   2
     Q(r) pseudized with 0 coefficients 


     atomic species   valence    mass     pseudopotential
        Co             9.00    58.93300     Co( 1.00)

     Starting magnetic structure 
     atomic species   magnetization
        Co           0.700

     24 Sym. Ops., with inversion, found (12 have fractional translation)



   Cartesian axes

     site n.     atom                  positions (alat units)
         1           Co  tau(   1) = (  -0.0000000   0.5773503   0.4082483  )
         2           Co  tau(   2) = (   0.5000000   0.2886751   1.2247449  )

     number of k points=    76  Marzari-Vanderbilt smearing, width (Ry)=  0.0300
                       cart. coord. in units 2pi/alat
        k(    1) = (   0.0000000   0.0000000   0.0000000), wk =   0.0011574
        k(    2) = (   0.0000000   0.0000000   0.1020621), wk =   0.0023148
        k(    3) = (   0.0000000   0.0000000   0.2041241), wk =   0.0023148
        k(    4) = (   0.0000000   0.0000000  -0.3061862), wk =   0.0011574
        k(    5) = (   0.0000000   0.0962250   0.0000000), wk =   0.0069444
        k(    6) = (   0.0000000   0.0962250   0.1020621), wk =   0.0138889
        k(    7) = (   0.0000000   0.0962250   0.2041241), wk =   0.0138889
        k(    8) = (   0.0000000   0.0962250  -0.3061862), wk =   0.0069444
        k(    9) = (   0.0000000   0.1924501   0.0000000), wk =   0.0069444
        k(   10) = (   0.0000000   0.1924501   0.1020621), wk =   0.0138889
        k(   11) = (   0.0000000   0.1924501   0.2041241), wk =   0.0138889
        k(   12) = (   0.0000000   0.1924501  -0.3061862), wk =   0.0069444
        k(   13) = (   0.0000000   0.2886751   0.0000000), wk =   0.0069444
        k(   14) = (   0.0000000   0.2886751   0.1020621), wk =   0.0138889
        k(   15) = (   0.0000000   0.2886751   0.2041241), wk =   0.0138889
        k(   16) = (   0.0000000   0.2886751  -0.3061862), wk =   0.0069444
        k(   17) = (   0.0000000   0.3849002   0.0000000), wk =   0.0069444
        k(   18) = (   0.0000000   0.3849002   0.1020621), wk =   0.0138889
        k(   19) = (   0.0000000   0.3849002   0.2041241), wk =   0.0138889
        k(   20) = (   0.0000000   0.3849002  -0.3061862), wk =   0.0069444
        k(   21) = (   0.0000000   0.4811252   0.0000000), wk =   0.0069444
        k(   22) = (   0.0000000   0.4811252   0.1020621), wk =   0.0138889
        k(   23) = (   0.0000000   0.4811252   0.2041241), wk =   0.0138889
        k(   24) = (   0.0000000   0.4811252  -0.3061862), wk =   0.0069444
        k(   25) = (   0.0000000  -0.5773503   0.0000000), wk =   0.0034722
        k(   26) = (   0.0000000  -0.5773503   0.1020621), wk =   0.0069444
        k(   27) = (   0.0000000  -0.5773503   0.2041241), wk =   0.0069444
        k(   28) = (   0.0000000  -0.5773503  -0.3061862), wk =   0.0034722
        k(   29) = (   0.0833333   0.1443376   0.0000000), wk =   0.0069444
        k(   30) = (   0.0833333   0.1443376   0.1020621), wk =   0.0138889
        k(   31) = (   0.0833333   0.1443376   0.2041241), wk =   0.0138889
        k(   32) = (   0.0833333   0.1443376  -0.3061862), wk =   0.0069444
        k(   33) = (   0.0833333   0.2405626   0.0000000), wk =   0.0138889
        k(   34) = (   0.0833333   0.2405626   0.1020621), wk =   0.0277778
        k(   35) = (   0.0833333   0.2405626   0.2041241), wk =   0.0277778
        k(   36) = (   0.0833333   0.2405626  -0.3061862), wk =   0.0138889
        k(   37) = (   0.0833333   0.3367877   0.0000000), wk =   0.0138889
        k(   38) = (   0.0833333   0.3367877   0.1020621), wk =   0.0277778
        k(   39) = (   0.0833333   0.3367877   0.2041241), wk =   0.0277778
        k(   40) = (   0.0833333   0.3367877  -0.3061862), wk =   0.0138889
        k(   41) = (   0.0833333   0.4330127   0.0000000), wk =   0.0138889
        k(   42) = (   0.0833333   0.4330127   0.1020621), wk =   0.0277778
        k(   43) = (   0.0833333   0.4330127   0.2041241), wk =   0.0277778
        k(   44) = (   0.0833333   0.4330127  -0.3061862), wk =   0.0138889
        k(   45) = (   0.0833333   0.5292377   0.0000000), wk =   0.0138889
        k(   46) = (   0.0833333   0.5292377   0.1020621), wk =   0.0277778
        k(   47) = (   0.0833333   0.5292377   0.2041241), wk =   0.0277778
        k(   48) = (   0.0833333   0.5292377  -0.3061862), wk =   0.0138889
        k(   49) = (   0.1666667   0.2886751   0.0000000), wk =   0.0069444
        k(   50) = (   0.1666667   0.2886751   0.1020621), wk =   0.0138889
        k(   51) = (   0.1666667   0.2886751   0.2041241), wk =   0.0138889
        k(   52) = (   0.1666667   0.2886751  -0.3061862), wk =   0.0069444
        k(   53) = (   0.1666667   0.3849002   0.0000000), wk =   0.0138889
        k(   54) = (   0.1666667   0.3849002   0.1020621), wk =   0.0277778
        k(   55) = (   0.1666667   0.3849002   0.2041241), wk =   0.0277778
        k(   56) = (   0.1666667   0.3849002  -0.3061862), wk =   0.0138889
        k(   57) = (   0.1666667   0.4811252   0.0000000), wk =   0.0138889
        k(   58) = (   0.1666667   0.4811252   0.1020621), wk =   0.0277778
        k(   59) = (   0.1666667   0.4811252   0.2041241), wk =   0.0277778
        k(   60) = (   0.1666667   0.4811252  -0.3061862), wk =   0.0138889
        k(   61) = (   0.1666667   0.5773503   0.0000000), wk =   0.0069444
        k(   62) = (   0.1666667   0.5773503   0.1020621), wk =   0.0138889
        k(   63) = (   0.1666667   0.5773503   0.2041241), wk =   0.0138889
        k(   64) = (   0.1666667   0.5773503  -0.3061862), wk =   0.0069444
        k(   65) = (   0.2500000   0.4330127   0.0000000), wk =   0.0069444
        k(   66) = (   0.2500000   0.4330127   0.1020621), wk =   0.0138889
        k(   67) = (   0.2500000   0.4330127   0.2041241), wk =   0.0138889
        k(   68) = (   0.2500000   0.4330127  -0.3061862), wk =   0.0069444
        k(   69) = (   0.2500000   0.5292377   0.0000000), wk =   0.0138889
        k(   70) = (   0.2500000   0.5292377   0.1020621), wk =   0.0277778
        k(   71) = (   0.2500000   0.5292377   0.2041241), wk =   0.0277778
        k(   72) = (   0.2500000   0.5292377  -0.3061862), wk =   0.0138889
        k(   73) = (   0.3333333   0.5773503   0.0000000), wk =   0.0023148
        k(   74) = (   0.3333333   0.5773503   0.1020621), wk =   0.0046296
        k(   75) = (   0.3333333   0.5773503   0.2041241), wk =   0.0046296
        k(   76) = (   0.3333333   0.5773503  -0.3061862), wk =   0.0023148

     Dense  grid:    17885 G-vectors     FFT dimensions: (  30,  30,  48)

     Smooth grid:     5907 G-vectors     FFT dimensions: (  24,  24,  36)

     Estimated max dynamical RAM per process >      96.77 MB
     Generating pointlists ...
     new r_m :   0.4125 (alat units)  2.3678 (a.u.) for type    1

     Check: negative core charge=   -0.000074

     Initial potential from superposition of free atoms

     starting charge   17.99923, renormalised to   18.00000
     Starting wfcs are   12 randomized atomic wfcs +    1 random wfcs

     total cpu time spent up to now is        5.8 secs

     Self-consistent Calculation

     iteration #  1     ecut=    30.00 Ry     beta= 0.70
     Davidson diagonalization with overlap
     ethr =  1.00E-02,  avg # of iterations =  3.3

     total cpu time spent up to now is       21.0 secs

     total energy              =    -147.27590587 Ry
     Harris-Foulkes estimate   =    -148.01376301 Ry
     estimated scf accuracy    <       1.45658019 Ry

     total magnetization       =     6.20 Bohr mag/cell
     absolute magnetization    =     6.25 Bohr mag/cell

     iteration #  2     ecut=    30.00 Ry     beta= 0.70
     Davidson diagonalization with overlap
     ethr =  8.09E-03,  avg # of iterations =  3.0

     total cpu time spent up to now is       38.1 secs

     total energy              =    -147.41599892 Ry
     Harris-Foulkes estimate   =    -149.18083772 Ry
     estimated scf accuracy    <       5.51543733 Ry

     total magnetization       =     2.42 Bohr mag/cell
     absolute magnetization    =     2.51 Bohr mag/cell

     iteration #  3     ecut=    30.00 Ry     beta= 0.70
     Davidson diagonalization with overlap
     ethr =  8.09E-03,  avg # of iterations =  2.2

     total cpu time spent up to now is       53.1 secs

     total energy              =    -148.12279235 Ry
     Harris-Foulkes estimate   =    -148.09709648 Ry
     estimated scf accuracy    <       0.06704739 Ry

     total magnetization       =     4.25 Bohr mag/cell
     absolute magnetization    =     4.48 Bohr mag/cell

     iteration #  4     ecut=    30.00 Ry     beta= 0.70
     Davidson diagonalization with overlap
     ethr =  3.72E-04,  avg # of iterations =  2.5

     total cpu time spent up to now is       66.0 secs

     total energy              =    -148.13679580 Ry
     Harris-Foulkes estimate   =    -148.13691114 Ry
     estimated scf accuracy    <       0.00192830 Ry

     total magnetization       =     4.01 Bohr mag/cell
     absolute magnetization    =     4.38 Bohr mag/cell

     iteration #  5     ecut=    30.00 Ry     beta= 0.70
     Davidson diagonalization with overlap
     ethr =  1.07E-05,  avg # of iterations =  3.0

     total cpu time spent up to now is       82.6 secs

     total energy              =    -148.13823205 Ry
     Harris-Foulkes estimate   =    -148.13822321 Ry
     estimated scf accuracy    <       0.00003752 Ry

     total magnetization       =     3.89 Bohr mag/cell
     absolute magnetization    =     4.28 Bohr mag/cell

     iteration #  6     ecut=    30.00 Ry     beta= 0.70
     Davidson diagonalization with overlap
     ethr =  2.08E-07,  avg # of iterations =  2.5

     total cpu time spent up to now is       96.5 secs

     total energy              =    -148.13825027 Ry
     Harris-Foulkes estimate   =    -148.13824607 Ry
     estimated scf accuracy    <       0.00000543 Ry

     total magnetization       =     3.89 Bohr mag/cell
     absolute magnetization    =     4.28 Bohr mag/cell

     iteration #  7     ecut=    30.00 Ry     beta= 0.70
     Davidson diagonalization with overlap
     ethr =  3.02E-08,  avg # of iterations =  2.1

     total cpu time spent up to now is      109.2 secs

     total energy              =    -148.13825169 Ry
     Harris-Foulkes estimate   =    -148.13825160 Ry
     estimated scf accuracy    <       0.00000152 Ry

     total magnetization       =     3.89 Bohr mag/cell
     absolute magnetization    =     4.28 Bohr mag/cell

     iteration #  8     ecut=    30.00 Ry     beta= 0.70
     Davidson diagonalization with overlap
     ethr =  8.42E-09,  avg # of iterations =  2.0

     total cpu time spent up to now is      121.5 secs

     total energy              =    -148.13825226 Ry
     Harris-Foulkes estimate   =    -148.13825236 Ry
     estimated scf accuracy    <       0.00000026 Ry

     total magnetization       =     3.89 Bohr mag/cell
     absolute magnetization    =     4.28 Bohr mag/cell

     iteration #  9     ecut=    30.00 Ry     beta= 0.70
     Davidson diagonalization with overlap
     ethr =  1.46E-09,  avg # of iterations =  2.7

     total cpu time spent up to now is      135.9 secs

     total energy              =    -148.13825236 Ry
     Harris-Foulkes estimate   =    -148.13825242 Ry
     estimated scf accuracy    <       0.00000018 Ry

     total magnetization       =     3.90 Bohr mag/cell
     absolute magnetization    =     4.28 Bohr mag/cell

     iteration # 10     ecut=    30.00 Ry     beta= 0.70
     Davidson diagonalization with overlap
     ethr =  1.01E-09,  avg # of iterations =  1.6

     Magnetic moment per site:
     atom:    1    charge:    8.0327    magn:    2.0278    constr:    0.0000
     atom:    2    charge:    8.0327    magn:    2.0278    constr:    0.0000

     total cpu time spent up to now is      146.7 secs

     End of self-consistent calculation

     Number of k-points >= 100: set verbosity='high' to print the bands.

     the Fermi energy is     5.7843 ev

!    total energy              =    -148.13825239 Ry
     Harris-Foulkes estimate   =    -148.13825239 Ry
     estimated scf accuracy    <          5.1E-10 Ry

     The total energy is the sum of the following terms:

     one-electron contribution =     -23.80652059 Ry
     hartree contribution      =      31.47924603 Ry
     xc contribution           =     -64.31469409 Ry
     ewald contribution        =     -91.49496440 Ry
     smearing contrib. (-TS)   =      -0.00131934 Ry

     total magnetization       =     3.89 Bohr mag/cell
     absolute magnetization    =     4.28 Bohr mag/cell

     convergence has been achieved in  10 iterations

     Forces acting on atoms (cartesian axes, Ry/au):

     atom    1 type  1   force =     0.00000000    0.00000000    0.00000000
     atom    2 type  1   force =     0.00000000    0.00000000    0.00000000

     Total force =     0.000000     Total SCF correction =     0.000000


     Computing stress (Cartesian axis) and pressure

          total   stress  (Ry/bohr**3)                   (kbar)     P= -353.16
  -0.00241020  -0.00000000  -0.00000000       -354.55     -0.00     -0.00
  -0.00000000  -0.00241020  -0.00000000         -0.00   -354.55     -0.00
  -0.00000000  -0.00000000  -0.00238179         -0.00     -0.00   -350.37


     Writing output data file Co.HCP.save/

     init_run     :      5.29s CPU      5.47s WALL (       1 calls)
     electrons    :    138.64s CPU    140.97s WALL (       1 calls)
     forces       :      2.02s CPU      2.06s WALL (       1 calls)
     stress       :      3.78s CPU      3.91s WALL (       1 calls)

     Called by init_run:
     wfcinit      :      3.90s CPU      3.99s WALL (       1 calls)
     potinit      :      0.13s CPU      0.14s WALL (       1 calls)
     hinit0       :      0.99s CPU      1.02s WALL (       1 calls)

     Called by electrons:
     c_bands      :    113.50s CPU    115.00s WALL (      10 calls)
     sum_band     :     21.86s CPU     22.39s WALL (      10 calls)
     v_of_rho     :      0.49s CPU      0.49s WALL (      11 calls)
     newd         :      2.79s CPU      3.12s WALL (      11 calls)
     mix_rho      :      0.17s CPU      0.17s WALL (      10 calls)

     Called by c_bands:
     init_us_2    :      2.06s CPU      2.09s WALL (    3496 calls)
     cegterg      :    109.28s CPU    110.71s WALL (    1520 calls)

     Called by sum_band:
     sum_band:bec :      0.18s CPU      0.19s WALL (    1520 calls)
     addusdens    :      4.25s CPU      4.57s WALL (      10 calls)

     Called by *egterg:
     h_psi        :     79.39s CPU     80.51s WALL (    5450 calls)
     s_psi        :      8.37s CPU      8.47s WALL (    5450 calls)
     g_psi        :      0.22s CPU      0.22s WALL (    3778 calls)
     cdiaghg      :      4.53s CPU      4.59s WALL (    5298 calls)

     Called by h_psi:
     h_psi:pot    :     79.22s CPU     80.33s WALL (    5450 calls)
     h_psi:calbec :      9.04s CPU      9.18s WALL (    5450 calls)
     vloc_psi     :     61.82s CPU     62.70s WALL (    5450 calls)
     add_vuspsi   :      8.31s CPU      8.42s WALL (    5450 calls)

     General routines
     calbec       :     13.75s CPU     13.99s WALL (    7730 calls)
     fft          :      0.44s CPU      0.44s WALL (     125 calls)
     ffts         :      0.08s CPU      0.09s WALL (      42 calls)
     fftw         :     61.22s CPU     62.13s WALL (  127144 calls)
     interpolate  :      0.14s CPU      0.14s WALL (      22 calls)

     Parallel routines

     PWSCF        :   2m30.17s CPU   2m32.95s WALL


   This run was terminated on:  15:27:27  19Feb2020            

=------------------------------------------------------------------------------=
   JOB DONE.
=------------------------------------------------------------------------------=
