     Message from routine get_command_line:
     unexpected argument # 2     :-input

     Program PWSCF v.6.4.1 starts on 19Feb2020 at 13:57:21 

     This program is part of the open-source Quantum ESPRESSO suite
     for quantum simulation of materials; please cite
         "P. Giannozzi et al., J. Phys.:Condens. Matter 21 395502 (2009);
         "P. Giannozzi et al., J. Phys.:Condens. Matter 29 465901 (2017);
          URL http://www.quantum-espresso.org", 
     in publications or presentations arising from this work. More details at
     http://www.quantum-espresso.org/quote

     Parallel version (MPI), running on     1 processors

     MPI processes distributed on     1 nodes
     Waiting for input...
     Reading input from standard input

     Current dimensions of program PWSCF are:
     Max number of different atomic species (ntypx) = 10
     Max number of k-points (npk) =  40000
     Max angular momentum in pseudopotentials (lmaxx) =  3
               file Co.pz-nd-rrkjus.UPF: wavefunction(s)  4S 3D renormalized

     Subspace diagonalization in iterative solution of the eigenvalue problem:
     a serial algorithm will be used


     G-vector sticks info
     --------------------
     sticks:   dense  smooth     PW     G-vecs:    dense   smooth      PW
     Sum         337     163     55                 8005     2731     573



     bravais-lattice index     =            4
     lattice parameter (alat)  =       4.4000  a.u.
     unit-cell volume          =     120.4684 (a.u.)^3
     number of atoms/cell      =            2
     number of atomic types    =            1
     number of electrons       =        18.00
     number of Kohn-Sham states=           13
     kinetic-energy cutoff     =      30.0000  Ry
     charge density cutoff     =     250.0000  Ry
     convergence threshold     =      1.0E-08
     mixing beta               =       0.7000
     number of iterations used =            8  plain     mixing
     Exchange-correlation      =  SLA  PZ   NOGX NOGC ( 1  1  0  0 0 0)

     celldm(1)=   4.400000  celldm(2)=   0.000000  celldm(3)=   1.632993
     celldm(4)=   0.000000  celldm(5)=   0.000000  celldm(6)=   0.000000

     crystal axes: (cart. coord. in units of alat)
               a(1) = (   1.000000   0.000000   0.000000 )  
               a(2) = (  -0.500000   0.866025   0.000000 )  
               a(3) = (   0.000000   0.000000   1.632993 )  

     reciprocal axes: (cart. coord. in units 2 pi/alat)
               b(1) = (  1.000000  0.577350 -0.000000 )  
               b(2) = (  0.000000  1.154701  0.000000 )  
               b(3) = (  0.000000 -0.000000  0.612372 )  


     PseudoPot. # 1 for Co read from file:
     ./Co.pz-nd-rrkjus.UPF
     MD5 check sum: c80159f6ca3a93d3df3cfc6468bb3c3d
     Pseudo is Ultrasoft + core correction, Zval =  9.0
     Generated by new atomic code, or converted to UPF format
     Using radial grid of  961 points,  6 beta functions with: 
                l(1) =   0
                l(2) =   0
                l(3) =   1
                l(4) =   1
                l(5) =   2
                l(6) =   2
     Q(r) pseudized with 0 coefficients 


     atomic species   valence    mass     pseudopotential
        Co             9.00    58.93300     Co( 1.00)

     Starting magnetic structure 
     atomic species   magnetization
        Co           0.700

     24 Sym. Ops., with inversion, found (12 have fractional translation)



   Cartesian axes

     site n.     atom                  positions (alat units)
         1           Co  tau(   1) = (  -0.0000000   0.5773503   0.4082483  )
         2           Co  tau(   2) = (   0.5000000   0.2886751   1.2247449  )

     number of k points=    76  Marzari-Vanderbilt smearing, width (Ry)=  0.0300
                       cart. coord. in units 2pi/alat
        k(    1) = (   0.0000000   0.0000000   0.0000000), wk =   0.0011574
        k(    2) = (   0.0000000   0.0000000   0.1020621), wk =   0.0023148
        k(    3) = (   0.0000000   0.0000000   0.2041241), wk =   0.0023148
        k(    4) = (   0.0000000   0.0000000  -0.3061862), wk =   0.0011574
        k(    5) = (   0.0000000   0.0962250   0.0000000), wk =   0.0069444
        k(    6) = (   0.0000000   0.0962250   0.1020621), wk =   0.0138889
        k(    7) = (   0.0000000   0.0962250   0.2041241), wk =   0.0138889
        k(    8) = (   0.0000000   0.0962250  -0.3061862), wk =   0.0069444
        k(    9) = (   0.0000000   0.1924501   0.0000000), wk =   0.0069444
        k(   10) = (   0.0000000   0.1924501   0.1020621), wk =   0.0138889
        k(   11) = (   0.0000000   0.1924501   0.2041241), wk =   0.0138889
        k(   12) = (   0.0000000   0.1924501  -0.3061862), wk =   0.0069444
        k(   13) = (   0.0000000   0.2886751   0.0000000), wk =   0.0069444
        k(   14) = (   0.0000000   0.2886751   0.1020621), wk =   0.0138889
        k(   15) = (   0.0000000   0.2886751   0.2041241), wk =   0.0138889
        k(   16) = (   0.0000000   0.2886751  -0.3061862), wk =   0.0069444
        k(   17) = (   0.0000000   0.3849002   0.0000000), wk =   0.0069444
        k(   18) = (   0.0000000   0.3849002   0.1020621), wk =   0.0138889
        k(   19) = (   0.0000000   0.3849002   0.2041241), wk =   0.0138889
        k(   20) = (   0.0000000   0.3849002  -0.3061862), wk =   0.0069444
        k(   21) = (   0.0000000   0.4811252   0.0000000), wk =   0.0069444
        k(   22) = (   0.0000000   0.4811252   0.1020621), wk =   0.0138889
        k(   23) = (   0.0000000   0.4811252   0.2041241), wk =   0.0138889
        k(   24) = (   0.0000000   0.4811252  -0.3061862), wk =   0.0069444
        k(   25) = (   0.0000000  -0.5773503   0.0000000), wk =   0.0034722
        k(   26) = (   0.0000000  -0.5773503   0.1020621), wk =   0.0069444
        k(   27) = (   0.0000000  -0.5773503   0.2041241), wk =   0.0069444
        k(   28) = (   0.0000000  -0.5773503  -0.3061862), wk =   0.0034722
        k(   29) = (   0.0833333   0.1443376   0.0000000), wk =   0.0069444
        k(   30) = (   0.0833333   0.1443376   0.1020621), wk =   0.0138889
        k(   31) = (   0.0833333   0.1443376   0.2041241), wk =   0.0138889
        k(   32) = (   0.0833333   0.1443376  -0.3061862), wk =   0.0069444
        k(   33) = (   0.0833333   0.2405626   0.0000000), wk =   0.0138889
        k(   34) = (   0.0833333   0.2405626   0.1020621), wk =   0.0277778
        k(   35) = (   0.0833333   0.2405626   0.2041241), wk =   0.0277778
        k(   36) = (   0.0833333   0.2405626  -0.3061862), wk =   0.0138889
        k(   37) = (   0.0833333   0.3367877   0.0000000), wk =   0.0138889
        k(   38) = (   0.0833333   0.3367877   0.1020621), wk =   0.0277778
        k(   39) = (   0.0833333   0.3367877   0.2041241), wk =   0.0277778
        k(   40) = (   0.0833333   0.3367877  -0.3061862), wk =   0.0138889
        k(   41) = (   0.0833333   0.4330127   0.0000000), wk =   0.0138889
        k(   42) = (   0.0833333   0.4330127   0.1020621), wk =   0.0277778
        k(   43) = (   0.0833333   0.4330127   0.2041241), wk =   0.0277778
        k(   44) = (   0.0833333   0.4330127  -0.3061862), wk =   0.0138889
        k(   45) = (   0.0833333   0.5292377   0.0000000), wk =   0.0138889
        k(   46) = (   0.0833333   0.5292377   0.1020621), wk =   0.0277778
        k(   47) = (   0.0833333   0.5292377   0.2041241), wk =   0.0277778
        k(   48) = (   0.0833333   0.5292377  -0.3061862), wk =   0.0138889
        k(   49) = (   0.1666667   0.2886751   0.0000000), wk =   0.0069444
        k(   50) = (   0.1666667   0.2886751   0.1020621), wk =   0.0138889
        k(   51) = (   0.1666667   0.2886751   0.2041241), wk =   0.0138889
        k(   52) = (   0.1666667   0.2886751  -0.3061862), wk =   0.0069444
        k(   53) = (   0.1666667   0.3849002   0.0000000), wk =   0.0138889
        k(   54) = (   0.1666667   0.3849002   0.1020621), wk =   0.0277778
        k(   55) = (   0.1666667   0.3849002   0.2041241), wk =   0.0277778
        k(   56) = (   0.1666667   0.3849002  -0.3061862), wk =   0.0138889
        k(   57) = (   0.1666667   0.4811252   0.0000000), wk =   0.0138889
        k(   58) = (   0.1666667   0.4811252   0.1020621), wk =   0.0277778
        k(   59) = (   0.1666667   0.4811252   0.2041241), wk =   0.0277778
        k(   60) = (   0.1666667   0.4811252  -0.3061862), wk =   0.0138889
        k(   61) = (   0.1666667   0.5773503   0.0000000), wk =   0.0069444
        k(   62) = (   0.1666667   0.5773503   0.1020621), wk =   0.0138889
        k(   63) = (   0.1666667   0.5773503   0.2041241), wk =   0.0138889
        k(   64) = (   0.1666667   0.5773503  -0.3061862), wk =   0.0069444
        k(   65) = (   0.2500000   0.4330127   0.0000000), wk =   0.0069444
        k(   66) = (   0.2500000   0.4330127   0.1020621), wk =   0.0138889
        k(   67) = (   0.2500000   0.4330127   0.2041241), wk =   0.0138889
        k(   68) = (   0.2500000   0.4330127  -0.3061862), wk =   0.0069444
        k(   69) = (   0.2500000   0.5292377   0.0000000), wk =   0.0138889
        k(   70) = (   0.2500000   0.5292377   0.1020621), wk =   0.0277778
        k(   71) = (   0.2500000   0.5292377   0.2041241), wk =   0.0277778
        k(   72) = (   0.2500000   0.5292377  -0.3061862), wk =   0.0138889
        k(   73) = (   0.3333333   0.5773503   0.0000000), wk =   0.0023148
        k(   74) = (   0.3333333   0.5773503   0.1020621), wk =   0.0046296
        k(   75) = (   0.3333333   0.5773503   0.2041241), wk =   0.0046296
        k(   76) = (   0.3333333   0.5773503  -0.3061862), wk =   0.0023148

     Dense  grid:     8005 G-vectors     FFT dimensions: (  24,  24,  40)

     Smooth grid:     2731 G-vectors     FFT dimensions: (  15,  15,  30)

     Estimated max dynamical RAM per process >      44.14 MB
     Generating pointlists ...
     new r_m :   0.4125 (alat units)  1.8150 (a.u.) for type    1

     Check: negative core charge=   -0.000015

     Initial potential from superposition of free atoms

     starting charge   17.99923, renormalised to   18.00000
     Starting wfcs are   12 randomized atomic wfcs +    1 random wfcs

     total cpu time spent up to now is        2.3 secs

     Self-consistent Calculation

     iteration #  1     ecut=    30.00 Ry     beta= 0.70
     Davidson diagonalization with overlap
     ethr =  1.00E-02,  avg # of iterations =  3.5

     total cpu time spent up to now is        7.6 secs

     total energy              =    -147.97644742 Ry
     Harris-Foulkes estimate   =    -148.06514375 Ry
     estimated scf accuracy    <       1.10799001 Ry

     total magnetization       =     4.60 Bohr mag/cell
     absolute magnetization    =     4.61 Bohr mag/cell

     iteration #  2     ecut=    30.00 Ry     beta= 0.70
     Davidson diagonalization with overlap
     ethr =  6.16E-03,  avg # of iterations =  2.2

     total cpu time spent up to now is       12.1 secs

     total energy              =    -148.20334311 Ry
     Harris-Foulkes estimate   =    -148.56709139 Ry
     estimated scf accuracy    <       0.90114047 Ry

     total magnetization       =     3.28 Bohr mag/cell
     absolute magnetization    =     3.40 Bohr mag/cell

     iteration #  3     ecut=    30.00 Ry     beta= 0.70
     Davidson diagonalization with overlap
     ethr =  5.01E-03,  avg # of iterations =  2.0

     total cpu time spent up to now is       16.1 secs

     total energy              =    -148.41718073 Ry
     Harris-Foulkes estimate   =    -148.39193314 Ry
     estimated scf accuracy    <       0.04509149 Ry

     total magnetization       =     3.42 Bohr mag/cell
     absolute magnetization    =     3.58 Bohr mag/cell

     iteration #  4     ecut=    30.00 Ry     beta= 0.70
     Davidson diagonalization with overlap
     ethr =  2.51E-04,  avg # of iterations =  1.8

     total cpu time spent up to now is       20.0 secs

     total energy              =    -148.42928484 Ry
     Harris-Foulkes estimate   =    -148.42889725 Ry
     estimated scf accuracy    <       0.00098354 Ry

     total magnetization       =     2.88 Bohr mag/cell
     absolute magnetization    =     3.10 Bohr mag/cell

     iteration #  5     ecut=    30.00 Ry     beta= 0.70
     Davidson diagonalization with overlap
     ethr =  5.46E-06,  avg # of iterations =  2.9

     total cpu time spent up to now is       25.1 secs

     total energy              =    -148.42994368 Ry
     Harris-Foulkes estimate   =    -148.42998530 Ry
     estimated scf accuracy    <       0.00052202 Ry

     total magnetization       =     2.74 Bohr mag/cell
     absolute magnetization    =     2.94 Bohr mag/cell

     iteration #  6     ecut=    30.00 Ry     beta= 0.70
     Davidson diagonalization with overlap
     ethr =  2.90E-06,  avg # of iterations =  1.8

     total cpu time spent up to now is       29.2 secs

     total energy              =    -148.43063681 Ry
     Harris-Foulkes estimate   =    -148.43061686 Ry
     estimated scf accuracy    <       0.00007794 Ry

     total magnetization       =     2.55 Bohr mag/cell
     absolute magnetization    =     2.73 Bohr mag/cell

     iteration #  7     ecut=    30.00 Ry     beta= 0.70
     Davidson diagonalization with overlap
     ethr =  4.33E-07,  avg # of iterations =  2.6

     total cpu time spent up to now is       34.2 secs

     total energy              =    -148.43073378 Ry
     Harris-Foulkes estimate   =    -148.43077963 Ry
     estimated scf accuracy    <       0.00002043 Ry

     total magnetization       =     2.47 Bohr mag/cell
     absolute magnetization    =     2.63 Bohr mag/cell

     iteration #  8     ecut=    30.00 Ry     beta= 0.70
     Davidson diagonalization with overlap
     ethr =  1.13E-07,  avg # of iterations =  2.4

     total cpu time spent up to now is       39.1 secs

     total energy              =    -148.43081142 Ry
     Harris-Foulkes estimate   =    -148.43081168 Ry
     estimated scf accuracy    <       0.00000182 Ry

     total magnetization       =     2.40 Bohr mag/cell
     absolute magnetization    =     2.55 Bohr mag/cell

     iteration #  9     ecut=    30.00 Ry     beta= 0.70
     Davidson diagonalization with overlap
     ethr =  1.01E-08,  avg # of iterations =  2.0

     total cpu time spent up to now is       43.2 secs

     total energy              =    -148.43081101 Ry
     Harris-Foulkes estimate   =    -148.43081196 Ry
     estimated scf accuracy    <       0.00000021 Ry

     total magnetization       =     2.40 Bohr mag/cell
     absolute magnetization    =     2.55 Bohr mag/cell

     iteration # 10     ecut=    30.00 Ry     beta= 0.70
     Davidson diagonalization with overlap
     ethr =  1.19E-09,  avg # of iterations =  2.6

     total cpu time spent up to now is       48.0 secs

     total energy              =    -148.43081246 Ry
     Harris-Foulkes estimate   =    -148.43081247 Ry
     estimated scf accuracy    <       0.00000001 Ry

     total magnetization       =     2.39 Bohr mag/cell
     absolute magnetization    =     2.54 Bohr mag/cell

     iteration # 11     ecut=    30.00 Ry     beta= 0.70
     Davidson diagonalization with overlap
     ethr =  7.30E-11,  avg # of iterations =  2.5

     Magnetic moment per site:
     atom:    1    charge:    7.5378    magn:    1.2291    constr:    0.0000
     atom:    2    charge:    7.5378    magn:    1.2291    constr:    0.0000

     total cpu time spent up to now is       52.6 secs

     End of self-consistent calculation

     Number of k-points >= 100: set verbosity='high' to print the bands.

     the Fermi energy is    17.7002 ev

!    total energy              =    -148.43081248 Ry
     Harris-Foulkes estimate   =    -148.43081248 Ry
     estimated scf accuracy    <          4.3E-09 Ry

     The total energy is the sum of the following terms:

     one-electron contribution =      17.69183408 Ry
     hartree contribution      =      18.36728802 Ry
     xc contribution           =     -65.13246092 Ry
     ewald contribution        =    -119.35933992 Ry
     smearing contrib. (-TS)   =       0.00186625 Ry

     total magnetization       =     2.39 Bohr mag/cell
     absolute magnetization    =     2.54 Bohr mag/cell

     convergence has been achieved in  11 iterations

     Forces acting on atoms (cartesian axes, Ry/au):

     atom    1 type  1   force =     0.00000000    0.00000000    0.00000000
     atom    2 type  1   force =    -0.00000000   -0.00000000    0.00000000

     Total force =     0.000000     Total SCF correction =     0.000000


     Computing stress (Cartesian axis) and pressure

          total   stress  (Ry/bohr**3)                   (kbar)     P=  344.92
   0.00248122  -0.00000000   0.00000000        365.00     -0.00      0.00
  -0.00000000   0.00248122   0.00000000         -0.00    365.00      0.00
   0.00000000   0.00000000   0.00207166          0.00      0.00    304.75


     Writing output data file Co.HCP.save/

     init_run     :      2.04s CPU      2.08s WALL (       1 calls)
     electrons    :     49.37s CPU     50.26s WALL (       1 calls)
     forces       :      0.91s CPU      0.91s WALL (       1 calls)
     stress       :      1.51s CPU      1.54s WALL (       1 calls)

     Called by init_run:
     wfcinit      :      1.15s CPU      1.18s WALL (       1 calls)
     potinit      :      0.05s CPU      0.05s WALL (       1 calls)
     hinit0       :      0.72s CPU      0.73s WALL (       1 calls)

     Called by electrons:
     c_bands      :     40.42s CPU     41.19s WALL (      11 calls)
     sum_band     :      7.51s CPU      7.61s WALL (      11 calls)
     v_of_rho     :      0.25s CPU      0.26s WALL (      12 calls)
     newd         :      1.19s CPU      1.21s WALL (      12 calls)
     mix_rho      :      0.08s CPU      0.08s WALL (      11 calls)

     Called by c_bands:
     init_us_2    :      0.90s CPU      0.91s WALL (    3800 calls)
     cegterg      :     38.56s CPU     39.30s WALL (    1672 calls)

     Called by sum_band:
     sum_band:bec :      0.17s CPU      0.17s WALL (    1672 calls)
     addusdens    :      1.94s CPU      1.96s WALL (      11 calls)

     Called by *egterg:
     h_psi        :     22.94s CPU     23.47s WALL (    5823 calls)
     s_psi        :      3.66s CPU      3.72s WALL (    5823 calls)
     g_psi        :      0.09s CPU      0.10s WALL (    3999 calls)
     cdiaghg      :      4.19s CPU      4.25s WALL (    5671 calls)

     Called by h_psi:
     h_psi:pot    :     22.86s CPU     23.39s WALL (    5823 calls)
     h_psi:calbec :      4.03s CPU      4.14s WALL (    5823 calls)
     vloc_psi     :     15.16s CPU     15.50s WALL (    5823 calls)
     add_vuspsi   :      3.64s CPU      3.71s WALL (    5823 calls)

     General routines
     calbec       :      6.19s CPU      6.32s WALL (    8255 calls)
     fft          :      0.17s CPU      0.17s WALL (     136 calls)
     ffts         :      0.02s CPU      0.02s WALL (      46 calls)
     fftw         :     14.10s CPU     14.43s WALL (  136964 calls)
     interpolate  :      0.04s CPU      0.04s WALL (      24 calls)

     Parallel routines

     PWSCF        :     54.16s CPU     55.19s WALL


   This run was terminated on:  13:58:16  19Feb2020            

=------------------------------------------------------------------------------=
   JOB DONE.
=------------------------------------------------------------------------------=
