     Message from routine get_command_line:
     unexpected argument # 2     :-input

     Program PWSCF v.6.4.1 starts on 19Feb2020 at 13:53:24 

     This program is part of the open-source Quantum ESPRESSO suite
     for quantum simulation of materials; please cite
         "P. Giannozzi et al., J. Phys.:Condens. Matter 21 395502 (2009);
         "P. Giannozzi et al., J. Phys.:Condens. Matter 29 465901 (2017);
          URL http://www.quantum-espresso.org", 
     in publications or presentations arising from this work. More details at
     http://www.quantum-espresso.org/quote

     Parallel version (MPI), running on     1 processors

     MPI processes distributed on     1 nodes
     Waiting for input...
     Reading input from standard input

     Current dimensions of program PWSCF are:
     Max number of different atomic species (ntypx) = 10
     Max number of k-points (npk) =  40000
     Max angular momentum in pseudopotentials (lmaxx) =  3
               file Co.pz-nd-rrkjus.UPF: wavefunction(s)  4S 3D renormalized

     Subspace diagonalization in iterative solution of the eigenvalue problem:
     a serial algorithm will be used


     G-vector sticks info
     --------------------
     sticks:   dense  smooth     PW     G-vecs:    dense   smooth      PW
     Sum         313     151     55                 7571     2539     549



     bravais-lattice index     =            4
     lattice parameter (alat)  =       4.3200  a.u.
     unit-cell volume          =     114.0161 (a.u.)^3
     number of atoms/cell      =            2
     number of atomic types    =            1
     number of electrons       =        18.00
     number of Kohn-Sham states=           13
     kinetic-energy cutoff     =      30.0000  Ry
     charge density cutoff     =     250.0000  Ry
     convergence threshold     =      1.0E-08
     mixing beta               =       0.7000
     number of iterations used =            8  plain     mixing
     Exchange-correlation      =  SLA  PZ   NOGX NOGC ( 1  1  0  0 0 0)

     celldm(1)=   4.320000  celldm(2)=   0.000000  celldm(3)=   1.632993
     celldm(4)=   0.000000  celldm(5)=   0.000000  celldm(6)=   0.000000

     crystal axes: (cart. coord. in units of alat)
               a(1) = (   1.000000   0.000000   0.000000 )  
               a(2) = (  -0.500000   0.866025   0.000000 )  
               a(3) = (   0.000000   0.000000   1.632993 )  

     reciprocal axes: (cart. coord. in units 2 pi/alat)
               b(1) = (  1.000000  0.577350 -0.000000 )  
               b(2) = (  0.000000  1.154701  0.000000 )  
               b(3) = (  0.000000 -0.000000  0.612372 )  


     PseudoPot. # 1 for Co read from file:
     ./Co.pz-nd-rrkjus.UPF
     MD5 check sum: c80159f6ca3a93d3df3cfc6468bb3c3d
     Pseudo is Ultrasoft + core correction, Zval =  9.0
     Generated by new atomic code, or converted to UPF format
     Using radial grid of  961 points,  6 beta functions with: 
                l(1) =   0
                l(2) =   0
                l(3) =   1
                l(4) =   1
                l(5) =   2
                l(6) =   2
     Q(r) pseudized with 0 coefficients 


     atomic species   valence    mass     pseudopotential
        Co             9.00    58.93300     Co( 1.00)

     Starting magnetic structure 
     atomic species   magnetization
        Co           0.700

     24 Sym. Ops., with inversion, found (12 have fractional translation)



   Cartesian axes

     site n.     atom                  positions (alat units)
         1           Co  tau(   1) = (  -0.0000000   0.5773503   0.4082483  )
         2           Co  tau(   2) = (   0.5000000   0.2886751   1.2247449  )

     number of k points=    76  Marzari-Vanderbilt smearing, width (Ry)=  0.0300
                       cart. coord. in units 2pi/alat
        k(    1) = (   0.0000000   0.0000000   0.0000000), wk =   0.0011574
        k(    2) = (   0.0000000   0.0000000   0.1020621), wk =   0.0023148
        k(    3) = (   0.0000000   0.0000000   0.2041241), wk =   0.0023148
        k(    4) = (   0.0000000   0.0000000  -0.3061862), wk =   0.0011574
        k(    5) = (   0.0000000   0.0962250   0.0000000), wk =   0.0069444
        k(    6) = (   0.0000000   0.0962250   0.1020621), wk =   0.0138889
        k(    7) = (   0.0000000   0.0962250   0.2041241), wk =   0.0138889
        k(    8) = (   0.0000000   0.0962250  -0.3061862), wk =   0.0069444
        k(    9) = (   0.0000000   0.1924501   0.0000000), wk =   0.0069444
        k(   10) = (   0.0000000   0.1924501   0.1020621), wk =   0.0138889
        k(   11) = (   0.0000000   0.1924501   0.2041241), wk =   0.0138889
        k(   12) = (   0.0000000   0.1924501  -0.3061862), wk =   0.0069444
        k(   13) = (   0.0000000   0.2886751   0.0000000), wk =   0.0069444
        k(   14) = (   0.0000000   0.2886751   0.1020621), wk =   0.0138889
        k(   15) = (   0.0000000   0.2886751   0.2041241), wk =   0.0138889
        k(   16) = (   0.0000000   0.2886751  -0.3061862), wk =   0.0069444
        k(   17) = (   0.0000000   0.3849002   0.0000000), wk =   0.0069444
        k(   18) = (   0.0000000   0.3849002   0.1020621), wk =   0.0138889
        k(   19) = (   0.0000000   0.3849002   0.2041241), wk =   0.0138889
        k(   20) = (   0.0000000   0.3849002  -0.3061862), wk =   0.0069444
        k(   21) = (   0.0000000   0.4811252   0.0000000), wk =   0.0069444
        k(   22) = (   0.0000000   0.4811252   0.1020621), wk =   0.0138889
        k(   23) = (   0.0000000   0.4811252   0.2041241), wk =   0.0138889
        k(   24) = (   0.0000000   0.4811252  -0.3061862), wk =   0.0069444
        k(   25) = (   0.0000000  -0.5773503   0.0000000), wk =   0.0034722
        k(   26) = (   0.0000000  -0.5773503   0.1020621), wk =   0.0069444
        k(   27) = (   0.0000000  -0.5773503   0.2041241), wk =   0.0069444
        k(   28) = (   0.0000000  -0.5773503  -0.3061862), wk =   0.0034722
        k(   29) = (   0.0833333   0.1443376   0.0000000), wk =   0.0069444
        k(   30) = (   0.0833333   0.1443376   0.1020621), wk =   0.0138889
        k(   31) = (   0.0833333   0.1443376   0.2041241), wk =   0.0138889
        k(   32) = (   0.0833333   0.1443376  -0.3061862), wk =   0.0069444
        k(   33) = (   0.0833333   0.2405626   0.0000000), wk =   0.0138889
        k(   34) = (   0.0833333   0.2405626   0.1020621), wk =   0.0277778
        k(   35) = (   0.0833333   0.2405626   0.2041241), wk =   0.0277778
        k(   36) = (   0.0833333   0.2405626  -0.3061862), wk =   0.0138889
        k(   37) = (   0.0833333   0.3367877   0.0000000), wk =   0.0138889
        k(   38) = (   0.0833333   0.3367877   0.1020621), wk =   0.0277778
        k(   39) = (   0.0833333   0.3367877   0.2041241), wk =   0.0277778
        k(   40) = (   0.0833333   0.3367877  -0.3061862), wk =   0.0138889
        k(   41) = (   0.0833333   0.4330127   0.0000000), wk =   0.0138889
        k(   42) = (   0.0833333   0.4330127   0.1020621), wk =   0.0277778
        k(   43) = (   0.0833333   0.4330127   0.2041241), wk =   0.0277778
        k(   44) = (   0.0833333   0.4330127  -0.3061862), wk =   0.0138889
        k(   45) = (   0.0833333   0.5292377   0.0000000), wk =   0.0138889
        k(   46) = (   0.0833333   0.5292377   0.1020621), wk =   0.0277778
        k(   47) = (   0.0833333   0.5292377   0.2041241), wk =   0.0277778
        k(   48) = (   0.0833333   0.5292377  -0.3061862), wk =   0.0138889
        k(   49) = (   0.1666667   0.2886751   0.0000000), wk =   0.0069444
        k(   50) = (   0.1666667   0.2886751   0.1020621), wk =   0.0138889
        k(   51) = (   0.1666667   0.2886751   0.2041241), wk =   0.0138889
        k(   52) = (   0.1666667   0.2886751  -0.3061862), wk =   0.0069444
        k(   53) = (   0.1666667   0.3849002   0.0000000), wk =   0.0138889
        k(   54) = (   0.1666667   0.3849002   0.1020621), wk =   0.0277778
        k(   55) = (   0.1666667   0.3849002   0.2041241), wk =   0.0277778
        k(   56) = (   0.1666667   0.3849002  -0.3061862), wk =   0.0138889
        k(   57) = (   0.1666667   0.4811252   0.0000000), wk =   0.0138889
        k(   58) = (   0.1666667   0.4811252   0.1020621), wk =   0.0277778
        k(   59) = (   0.1666667   0.4811252   0.2041241), wk =   0.0277778
        k(   60) = (   0.1666667   0.4811252  -0.3061862), wk =   0.0138889
        k(   61) = (   0.1666667   0.5773503   0.0000000), wk =   0.0069444
        k(   62) = (   0.1666667   0.5773503   0.1020621), wk =   0.0138889
        k(   63) = (   0.1666667   0.5773503   0.2041241), wk =   0.0138889
        k(   64) = (   0.1666667   0.5773503  -0.3061862), wk =   0.0069444
        k(   65) = (   0.2500000   0.4330127   0.0000000), wk =   0.0069444
        k(   66) = (   0.2500000   0.4330127   0.1020621), wk =   0.0138889
        k(   67) = (   0.2500000   0.4330127   0.2041241), wk =   0.0138889
        k(   68) = (   0.2500000   0.4330127  -0.3061862), wk =   0.0069444
        k(   69) = (   0.2500000   0.5292377   0.0000000), wk =   0.0138889
        k(   70) = (   0.2500000   0.5292377   0.1020621), wk =   0.0277778
        k(   71) = (   0.2500000   0.5292377   0.2041241), wk =   0.0277778
        k(   72) = (   0.2500000   0.5292377  -0.3061862), wk =   0.0138889
        k(   73) = (   0.3333333   0.5773503   0.0000000), wk =   0.0023148
        k(   74) = (   0.3333333   0.5773503   0.1020621), wk =   0.0046296
        k(   75) = (   0.3333333   0.5773503   0.2041241), wk =   0.0046296
        k(   76) = (   0.3333333   0.5773503  -0.3061862), wk =   0.0023148

     Dense  grid:     7571 G-vectors     FFT dimensions: (  24,  24,  36)

     Smooth grid:     2539 G-vectors     FFT dimensions: (  15,  15,  30)

     Estimated max dynamical RAM per process >      41.67 MB
     Generating pointlists ...
     new r_m :   0.4125 (alat units)  1.7820 (a.u.) for type    1

     Check: negative core charge=   -0.000007

     Initial potential from superposition of free atoms

     starting charge   17.99923, renormalised to   18.00000
     Starting wfcs are   12 randomized atomic wfcs +    1 random wfcs

     total cpu time spent up to now is        2.4 secs

     Self-consistent Calculation

     iteration #  1     ecut=    30.00 Ry     beta= 0.70
     Davidson diagonalization with overlap
     ethr =  1.00E-02,  avg # of iterations =  3.5

     total cpu time spent up to now is        7.5 secs

     total energy              =    -147.98814023 Ry
     Harris-Foulkes estimate   =    -148.01330037 Ry
     estimated scf accuracy    <       1.07986912 Ry

     total magnetization       =     4.45 Bohr mag/cell
     absolute magnetization    =     4.45 Bohr mag/cell

     iteration #  2     ecut=    30.00 Ry     beta= 0.70
     Davidson diagonalization with overlap
     ethr =  6.00E-03,  avg # of iterations =  2.1

     total cpu time spent up to now is       11.8 secs

     total energy              =    -148.20724094 Ry
     Harris-Foulkes estimate   =    -148.50624065 Ry
     estimated scf accuracy    <       0.75049304 Ry

     total magnetization       =     3.24 Bohr mag/cell
     absolute magnetization    =     3.36 Bohr mag/cell

     iteration #  3     ecut=    30.00 Ry     beta= 0.70
     Davidson diagonalization with overlap
     ethr =  4.17E-03,  avg # of iterations =  2.0

     total cpu time spent up to now is       15.7 secs

     total energy              =    -148.39451582 Ry
     Harris-Foulkes estimate   =    -148.37210798 Ry
     estimated scf accuracy    <       0.04734548 Ry

     total magnetization       =     3.32 Bohr mag/cell
     absolute magnetization    =     3.47 Bohr mag/cell

     iteration #  4     ecut=    30.00 Ry     beta= 0.70
     Davidson diagonalization with overlap
     ethr =  2.63E-04,  avg # of iterations =  1.3

     total cpu time spent up to now is       19.3 secs

     total energy              =    -148.40743560 Ry
     Harris-Foulkes estimate   =    -148.40658997 Ry
     estimated scf accuracy    <       0.00191513 Ry

     total magnetization       =     2.69 Bohr mag/cell
     absolute magnetization    =     2.90 Bohr mag/cell

     iteration #  5     ecut=    30.00 Ry     beta= 0.70
     Davidson diagonalization with overlap
     ethr =  1.06E-05,  avg # of iterations =  2.4

     total cpu time spent up to now is       23.6 secs

     total energy              =    -148.40846471 Ry
     Harris-Foulkes estimate   =    -148.40827346 Ry
     estimated scf accuracy    <       0.00124134 Ry

     total magnetization       =     2.53 Bohr mag/cell
     absolute magnetization    =     2.72 Bohr mag/cell

     iteration #  6     ecut=    30.00 Ry     beta= 0.70
     Davidson diagonalization with overlap
     ethr =  6.90E-06,  avg # of iterations =  1.6

     total cpu time spent up to now is       27.5 secs

     total energy              =    -148.40976203 Ry
     Harris-Foulkes estimate   =    -148.40983218 Ry
     estimated scf accuracy    <       0.00033181 Ry

     total magnetization       =     2.25 Bohr mag/cell
     absolute magnetization    =     2.41 Bohr mag/cell

     iteration #  7     ecut=    30.00 Ry     beta= 0.70
     Davidson diagonalization with overlap
     ethr =  1.84E-06,  avg # of iterations =  2.4

     total cpu time spent up to now is       32.0 secs

     total energy              =    -148.41025425 Ry
     Harris-Foulkes estimate   =    -148.41046622 Ry
     estimated scf accuracy    <       0.00008051 Ry

     total magnetization       =     2.04 Bohr mag/cell
     absolute magnetization    =     2.17 Bohr mag/cell

     iteration #  8     ecut=    30.00 Ry     beta= 0.70
     Davidson diagonalization with overlap
     ethr =  4.47E-07,  avg # of iterations =  2.5

     total cpu time spent up to now is       36.7 secs

     total energy              =    -148.41056390 Ry
     Harris-Foulkes estimate   =    -148.41065223 Ry
     estimated scf accuracy    <       0.00000969 Ry

     total magnetization       =     1.88 Bohr mag/cell
     absolute magnetization    =     1.99 Bohr mag/cell

     iteration #  9     ecut=    30.00 Ry     beta= 0.70
     Davidson diagonalization with overlap
     ethr =  5.38E-08,  avg # of iterations =  3.0

     total cpu time spent up to now is       42.3 secs

     total energy              =    -148.41067952 Ry
     Harris-Foulkes estimate   =    -148.41067957 Ry
     estimated scf accuracy    <       0.00000156 Ry

     total magnetization       =     1.79 Bohr mag/cell
     absolute magnetization    =     1.90 Bohr mag/cell

     iteration # 10     ecut=    30.00 Ry     beta= 0.70
     Davidson diagonalization with overlap
     ethr =  8.69E-09,  avg # of iterations =  2.0

     total cpu time spent up to now is       46.5 secs

     total energy              =    -148.41067810 Ry
     Harris-Foulkes estimate   =    -148.41067997 Ry
     estimated scf accuracy    <       0.00000020 Ry

     total magnetization       =     1.79 Bohr mag/cell
     absolute magnetization    =     1.90 Bohr mag/cell

     iteration # 11     ecut=    30.00 Ry     beta= 0.70
     Davidson diagonalization with overlap
     ethr =  1.13E-09,  avg # of iterations =  2.9

     total cpu time spent up to now is       51.5 secs

     total energy              =    -148.41068016 Ry
     Harris-Foulkes estimate   =    -148.41068017 Ry
     estimated scf accuracy    <       0.00000002 Ry

     total magnetization       =     1.78 Bohr mag/cell
     absolute magnetization    =     1.89 Bohr mag/cell

     iteration # 12     ecut=    30.00 Ry     beta= 0.70
     Davidson diagonalization with overlap
     ethr =  8.50E-11,  avg # of iterations =  2.2

     Magnetic moment per site:
     atom:    1    charge:    7.5011    magn:    0.9157    constr:    0.0000
     atom:    2    charge:    7.5011    magn:    0.9157    constr:    0.0000

     total cpu time spent up to now is       55.6 secs

     End of self-consistent calculation

     Number of k-points >= 100: set verbosity='high' to print the bands.

     the Fermi energy is    19.0109 ev

!    total energy              =    -148.41068022 Ry
     Harris-Foulkes estimate   =    -148.41068022 Ry
     estimated scf accuracy    <          2.1E-09 Ry

     The total energy is the sum of the following terms:

     one-electron contribution =      20.82663733 Ry
     hartree contribution      =      17.55405816 Ry
     xc contribution           =     -65.22039339 Ry
     ewald contribution        =    -121.56969807 Ry
     smearing contrib. (-TS)   =      -0.00128425 Ry

     total magnetization       =     1.78 Bohr mag/cell
     absolute magnetization    =     1.89 Bohr mag/cell

     convergence has been achieved in  12 iterations

     Forces acting on atoms (cartesian axes, Ry/au):

     atom    1 type  1   force =     0.00000000    0.00000000    0.00000000
     atom    2 type  1   force =    -0.00000000   -0.00000000    0.00000000

     Total force =     0.000000     Total SCF correction =     0.000000


     Computing stress (Cartesian axis) and pressure

          total   stress  (Ry/bohr**3)                   (kbar)     P=  574.20
   0.00407010  -0.00000000  -0.00000000        598.73     -0.00     -0.00
  -0.00000000   0.00407010   0.00000000         -0.00    598.73      0.00
   0.00000000  -0.00000000   0.00356973          0.00     -0.00    525.13


     Writing output data file Co.HCP.save/

     init_run     :      2.10s CPU      2.14s WALL (       1 calls)
     electrons    :     52.41s CPU     53.23s WALL (       1 calls)
     forces       :      0.89s CPU      0.89s WALL (       1 calls)
     stress       :      1.39s CPU      1.39s WALL (       1 calls)

     Called by init_run:
     wfcinit      :      1.23s CPU      1.25s WALL (       1 calls)
     potinit      :      0.05s CPU      0.05s WALL (       1 calls)
     hinit0       :      0.71s CPU      0.72s WALL (       1 calls)

     Called by electrons:
     c_bands      :     43.31s CPU     44.02s WALL (      12 calls)
     sum_band     :      7.61s CPU      7.71s WALL (      12 calls)
     v_of_rho     :      0.25s CPU      0.25s WALL (      13 calls)
     newd         :      1.24s CPU      1.27s WALL (      13 calls)
     mix_rho      :      0.07s CPU      0.07s WALL (      12 calls)

     Called by c_bands:
     init_us_2    :      0.90s CPU      0.92s WALL (    4104 calls)
     cegterg      :     41.37s CPU     42.06s WALL (    1824 calls)

     Called by sum_band:
     sum_band:bec :      0.17s CPU      0.17s WALL (    1824 calls)
     addusdens    :      1.94s CPU      1.95s WALL (      12 calls)

     Called by *egterg:
     h_psi        :     24.78s CPU     25.26s WALL (    6237 calls)
     s_psi        :      3.84s CPU      3.91s WALL (    6237 calls)
     g_psi        :      0.10s CPU      0.11s WALL (    4261 calls)
     cdiaghg      :      4.48s CPU      4.54s WALL (    6085 calls)

     Called by h_psi:
     h_psi:pot    :     24.69s CPU     25.18s WALL (    6237 calls)
     h_psi:calbec :      4.22s CPU      4.31s WALL (    6237 calls)
     vloc_psi     :     16.60s CPU     16.92s WALL (    6237 calls)
     add_vuspsi   :      3.83s CPU      3.91s WALL (    6237 calls)

     General routines
     calbec       :      6.41s CPU      6.53s WALL (    8821 calls)
     fft          :      0.18s CPU      0.18s WALL (     147 calls)
     ffts         :      0.03s CPU      0.03s WALL (      50 calls)
     fftw         :     15.32s CPU     15.64s WALL (  150752 calls)
     interpolate  :      0.05s CPU      0.05s WALL (      26 calls)

     Parallel routines

     PWSCF        :     57.14s CPU     58.05s WALL


   This run was terminated on:  13:54:22  19Feb2020            

=------------------------------------------------------------------------------=
   JOB DONE.
=------------------------------------------------------------------------------=
