     Message from routine get_command_line:
     unexpected argument # 2     :-input

     Program PWSCF v.6.4.1 starts on 19Feb2020 at 13:37:56 

     This program is part of the open-source Quantum ESPRESSO suite
     for quantum simulation of materials; please cite
         "P. Giannozzi et al., J. Phys.:Condens. Matter 21 395502 (2009);
         "P. Giannozzi et al., J. Phys.:Condens. Matter 29 465901 (2017);
          URL http://www.quantum-espresso.org", 
     in publications or presentations arising from this work. More details at
     http://www.quantum-espresso.org/quote

     Parallel version (MPI), running on     1 processors

     MPI processes distributed on     1 nodes
     Waiting for input...
     Reading input from standard input

     Current dimensions of program PWSCF are:
     Max number of different atomic species (ntypx) = 10
     Max number of k-points (npk) =  40000
     Max angular momentum in pseudopotentials (lmaxx) =  3
               file Co.pz-nd-rrkjus.UPF: wavefunction(s)  4S 3D renormalized

     Subspace diagonalization in iterative solution of the eigenvalue problem:
     a serial algorithm will be used


     G-vector sticks info
     --------------------
     sticks:   dense  smooth     PW     G-vecs:    dense   smooth      PW
     Sum         295     139     55                 6423     2093     465



     bravais-lattice index     =            4
     lattice parameter (alat)  =       4.0800  a.u.
     unit-cell volume          =      96.0496 (a.u.)^3
     number of atoms/cell      =            2
     number of atomic types    =            1
     number of electrons       =        18.00
     number of Kohn-Sham states=           13
     kinetic-energy cutoff     =      30.0000  Ry
     charge density cutoff     =     250.0000  Ry
     convergence threshold     =      1.0E-08
     mixing beta               =       0.7000
     number of iterations used =            8  plain     mixing
     Exchange-correlation      =  SLA  PZ   NOGX NOGC ( 1  1  0  0 0 0)

     celldm(1)=   4.080000  celldm(2)=   0.000000  celldm(3)=   1.632993
     celldm(4)=   0.000000  celldm(5)=   0.000000  celldm(6)=   0.000000

     crystal axes: (cart. coord. in units of alat)
               a(1) = (   1.000000   0.000000   0.000000 )  
               a(2) = (  -0.500000   0.866025   0.000000 )  
               a(3) = (   0.000000   0.000000   1.632993 )  

     reciprocal axes: (cart. coord. in units 2 pi/alat)
               b(1) = (  1.000000  0.577350 -0.000000 )  
               b(2) = (  0.000000  1.154701  0.000000 )  
               b(3) = (  0.000000 -0.000000  0.612372 )  


     PseudoPot. # 1 for Co read from file:
     ./Co.pz-nd-rrkjus.UPF
     MD5 check sum: c80159f6ca3a93d3df3cfc6468bb3c3d
     Pseudo is Ultrasoft + core correction, Zval =  9.0
     Generated by new atomic code, or converted to UPF format
     Using radial grid of  961 points,  6 beta functions with: 
                l(1) =   0
                l(2) =   0
                l(3) =   1
                l(4) =   1
                l(5) =   2
                l(6) =   2
     Q(r) pseudized with 0 coefficients 


     atomic species   valence    mass     pseudopotential
        Co             9.00    58.93300     Co( 1.00)

     Starting magnetic structure 
     atomic species   magnetization
        Co           0.700

     24 Sym. Ops., with inversion, found (12 have fractional translation)



   Cartesian axes

     site n.     atom                  positions (alat units)
         1           Co  tau(   1) = (  -0.0000000   0.5773503   0.4082483  )
         2           Co  tau(   2) = (   0.5000000   0.2886751   1.2247449  )

     number of k points=    76  Marzari-Vanderbilt smearing, width (Ry)=  0.0300
                       cart. coord. in units 2pi/alat
        k(    1) = (   0.0000000   0.0000000   0.0000000), wk =   0.0011574
        k(    2) = (   0.0000000   0.0000000   0.1020621), wk =   0.0023148
        k(    3) = (   0.0000000   0.0000000   0.2041241), wk =   0.0023148
        k(    4) = (   0.0000000   0.0000000  -0.3061862), wk =   0.0011574
        k(    5) = (   0.0000000   0.0962250   0.0000000), wk =   0.0069444
        k(    6) = (   0.0000000   0.0962250   0.1020621), wk =   0.0138889
        k(    7) = (   0.0000000   0.0962250   0.2041241), wk =   0.0138889
        k(    8) = (   0.0000000   0.0962250  -0.3061862), wk =   0.0069444
        k(    9) = (   0.0000000   0.1924501   0.0000000), wk =   0.0069444
        k(   10) = (   0.0000000   0.1924501   0.1020621), wk =   0.0138889
        k(   11) = (   0.0000000   0.1924501   0.2041241), wk =   0.0138889
        k(   12) = (   0.0000000   0.1924501  -0.3061862), wk =   0.0069444
        k(   13) = (   0.0000000   0.2886751   0.0000000), wk =   0.0069444
        k(   14) = (   0.0000000   0.2886751   0.1020621), wk =   0.0138889
        k(   15) = (   0.0000000   0.2886751   0.2041241), wk =   0.0138889
        k(   16) = (   0.0000000   0.2886751  -0.3061862), wk =   0.0069444
        k(   17) = (   0.0000000   0.3849002   0.0000000), wk =   0.0069444
        k(   18) = (   0.0000000   0.3849002   0.1020621), wk =   0.0138889
        k(   19) = (   0.0000000   0.3849002   0.2041241), wk =   0.0138889
        k(   20) = (   0.0000000   0.3849002  -0.3061862), wk =   0.0069444
        k(   21) = (   0.0000000   0.4811252   0.0000000), wk =   0.0069444
        k(   22) = (   0.0000000   0.4811252   0.1020621), wk =   0.0138889
        k(   23) = (   0.0000000   0.4811252   0.2041241), wk =   0.0138889
        k(   24) = (   0.0000000   0.4811252  -0.3061862), wk =   0.0069444
        k(   25) = (   0.0000000  -0.5773503   0.0000000), wk =   0.0034722
        k(   26) = (   0.0000000  -0.5773503   0.1020621), wk =   0.0069444
        k(   27) = (   0.0000000  -0.5773503   0.2041241), wk =   0.0069444
        k(   28) = (   0.0000000  -0.5773503  -0.3061862), wk =   0.0034722
        k(   29) = (   0.0833333   0.1443376   0.0000000), wk =   0.0069444
        k(   30) = (   0.0833333   0.1443376   0.1020621), wk =   0.0138889
        k(   31) = (   0.0833333   0.1443376   0.2041241), wk =   0.0138889
        k(   32) = (   0.0833333   0.1443376  -0.3061862), wk =   0.0069444
        k(   33) = (   0.0833333   0.2405626   0.0000000), wk =   0.0138889
        k(   34) = (   0.0833333   0.2405626   0.1020621), wk =   0.0277778
        k(   35) = (   0.0833333   0.2405626   0.2041241), wk =   0.0277778
        k(   36) = (   0.0833333   0.2405626  -0.3061862), wk =   0.0138889
        k(   37) = (   0.0833333   0.3367877   0.0000000), wk =   0.0138889
        k(   38) = (   0.0833333   0.3367877   0.1020621), wk =   0.0277778
        k(   39) = (   0.0833333   0.3367877   0.2041241), wk =   0.0277778
        k(   40) = (   0.0833333   0.3367877  -0.3061862), wk =   0.0138889
        k(   41) = (   0.0833333   0.4330127   0.0000000), wk =   0.0138889
        k(   42) = (   0.0833333   0.4330127   0.1020621), wk =   0.0277778
        k(   43) = (   0.0833333   0.4330127   0.2041241), wk =   0.0277778
        k(   44) = (   0.0833333   0.4330127  -0.3061862), wk =   0.0138889
        k(   45) = (   0.0833333   0.5292377   0.0000000), wk =   0.0138889
        k(   46) = (   0.0833333   0.5292377   0.1020621), wk =   0.0277778
        k(   47) = (   0.0833333   0.5292377   0.2041241), wk =   0.0277778
        k(   48) = (   0.0833333   0.5292377  -0.3061862), wk =   0.0138889
        k(   49) = (   0.1666667   0.2886751   0.0000000), wk =   0.0069444
        k(   50) = (   0.1666667   0.2886751   0.1020621), wk =   0.0138889
        k(   51) = (   0.1666667   0.2886751   0.2041241), wk =   0.0138889
        k(   52) = (   0.1666667   0.2886751  -0.3061862), wk =   0.0069444
        k(   53) = (   0.1666667   0.3849002   0.0000000), wk =   0.0138889
        k(   54) = (   0.1666667   0.3849002   0.1020621), wk =   0.0277778
        k(   55) = (   0.1666667   0.3849002   0.2041241), wk =   0.0277778
        k(   56) = (   0.1666667   0.3849002  -0.3061862), wk =   0.0138889
        k(   57) = (   0.1666667   0.4811252   0.0000000), wk =   0.0138889
        k(   58) = (   0.1666667   0.4811252   0.1020621), wk =   0.0277778
        k(   59) = (   0.1666667   0.4811252   0.2041241), wk =   0.0277778
        k(   60) = (   0.1666667   0.4811252  -0.3061862), wk =   0.0138889
        k(   61) = (   0.1666667   0.5773503   0.0000000), wk =   0.0069444
        k(   62) = (   0.1666667   0.5773503   0.1020621), wk =   0.0138889
        k(   63) = (   0.1666667   0.5773503   0.2041241), wk =   0.0138889
        k(   64) = (   0.1666667   0.5773503  -0.3061862), wk =   0.0069444
        k(   65) = (   0.2500000   0.4330127   0.0000000), wk =   0.0069444
        k(   66) = (   0.2500000   0.4330127   0.1020621), wk =   0.0138889
        k(   67) = (   0.2500000   0.4330127   0.2041241), wk =   0.0138889
        k(   68) = (   0.2500000   0.4330127  -0.3061862), wk =   0.0069444
        k(   69) = (   0.2500000   0.5292377   0.0000000), wk =   0.0138889
        k(   70) = (   0.2500000   0.5292377   0.1020621), wk =   0.0277778
        k(   71) = (   0.2500000   0.5292377   0.2041241), wk =   0.0277778
        k(   72) = (   0.2500000   0.5292377  -0.3061862), wk =   0.0138889
        k(   73) = (   0.3333333   0.5773503   0.0000000), wk =   0.0023148
        k(   74) = (   0.3333333   0.5773503   0.1020621), wk =   0.0046296
        k(   75) = (   0.3333333   0.5773503   0.2041241), wk =   0.0046296
        k(   76) = (   0.3333333   0.5773503  -0.3061862), wk =   0.0023148

     Dense  grid:     6423 G-vectors     FFT dimensions: (  24,  24,  36)

     Smooth grid:     2093 G-vectors     FFT dimensions: (  15,  15,  24)

     Estimated max dynamical RAM per process >      35.73 MB
     Generating pointlists ...
     new r_m :   0.4125 (alat units)  1.6830 (a.u.) for type    1

     Check: negative core charge=   -0.000004

     Initial potential from superposition of free atoms

     starting charge   17.99923, renormalised to   18.00000
     Starting wfcs are   12 randomized atomic wfcs +    1 random wfcs

     total cpu time spent up to now is        2.1 secs

     Self-consistent Calculation

     iteration #  1     ecut=    30.00 Ry     beta= 0.70
     Davidson diagonalization with overlap
     ethr =  1.00E-02,  avg # of iterations =  3.6

     total cpu time spent up to now is        6.5 secs

     total energy              =    -147.92630379 Ry
     Harris-Foulkes estimate   =    -147.76164592 Ry
     estimated scf accuracy    <       0.99921110 Ry

     total magnetization       =     4.03 Bohr mag/cell
     absolute magnetization    =     4.04 Bohr mag/cell

     iteration #  2     ecut=    30.00 Ry     beta= 0.70
     Davidson diagonalization with overlap
     ethr =  5.55E-03,  avg # of iterations =  2.0

     total cpu time spent up to now is       10.1 secs

     total energy              =    -148.12715896 Ry
     Harris-Foulkes estimate   =    -148.26449083 Ry
     estimated scf accuracy    <       0.42693405 Ry

     total magnetization       =     3.01 Bohr mag/cell
     absolute magnetization    =     3.12 Bohr mag/cell

     iteration #  3     ecut=    30.00 Ry     beta= 0.70
     Davidson diagonalization with overlap
     ethr =  2.37E-03,  avg # of iterations =  2.0

     total cpu time spent up to now is       13.0 secs

     total energy              =    -148.24364022 Ry
     Harris-Foulkes estimate   =    -148.22923316 Ry
     estimated scf accuracy    <       0.05455899 Ry

     total magnetization       =     2.95 Bohr mag/cell
     absolute magnetization    =     3.05 Bohr mag/cell

     iteration #  4     ecut=    30.00 Ry     beta= 0.70
     Davidson diagonalization with overlap
     ethr =  3.03E-04,  avg # of iterations =  1.2

     total cpu time spent up to now is       15.5 secs

     total energy              =    -148.25813361 Ry
     Harris-Foulkes estimate   =    -148.26214593 Ry
     estimated scf accuracy    <       0.00705461 Ry

     total magnetization       =     2.04 Bohr mag/cell
     absolute magnetization    =     2.21 Bohr mag/cell

     iteration #  5     ecut=    30.00 Ry     beta= 0.70
     Davidson diagonalization with overlap
     ethr =  3.92E-05,  avg # of iterations =  1.0

     total cpu time spent up to now is       17.9 secs

     total energy              =    -148.26265258 Ry
     Harris-Foulkes estimate   =    -148.25885029 Ry
     estimated scf accuracy    <       0.00956001 Ry

     total magnetization       =     2.21 Bohr mag/cell
     absolute magnetization    =     2.38 Bohr mag/cell

     iteration #  6     ecut=    30.00 Ry     beta= 0.70
     Davidson diagonalization with overlap
     ethr =  3.92E-05,  avg # of iterations =  1.5

     total cpu time spent up to now is       20.5 secs

     total energy              =    -148.26768484 Ry
     Harris-Foulkes estimate   =    -148.26963134 Ry
     estimated scf accuracy    <       0.00283052 Ry

     total magnetization       =     1.60 Bohr mag/cell
     absolute magnetization    =     1.72 Bohr mag/cell

     iteration #  7     ecut=    30.00 Ry     beta= 0.70
     Davidson diagonalization with overlap
     ethr =  1.57E-05,  avg # of iterations =  2.1

     total cpu time spent up to now is       24.0 secs

     total energy              =    -148.27278260 Ry
     Harris-Foulkes estimate   =    -148.27385836 Ry
     estimated scf accuracy    <       0.00057156 Ry

     total magnetization       =     0.98 Bohr mag/cell
     absolute magnetization    =     1.04 Bohr mag/cell

     iteration #  8     ecut=    30.00 Ry     beta= 0.70
     Davidson diagonalization with overlap
     ethr =  3.18E-06,  avg # of iterations =  1.3

     total cpu time spent up to now is       26.3 secs

     total energy              =    -148.27184549 Ry
     Harris-Foulkes estimate   =    -148.27318937 Ry
     estimated scf accuracy    <       0.00073834 Ry

     total magnetization       =     1.14 Bohr mag/cell
     absolute magnetization    =     1.21 Bohr mag/cell

     iteration #  9     ecut=    30.00 Ry     beta= 0.70
     Davidson diagonalization with overlap
     ethr =  3.18E-06,  avg # of iterations =  2.2

     total cpu time spent up to now is       29.5 secs

     total energy              =    -148.27456732 Ry
     Harris-Foulkes estimate   =    -148.27463933 Ry
     estimated scf accuracy    <       0.00017065 Ry

     total magnetization       =     0.70 Bohr mag/cell
     absolute magnetization    =     0.74 Bohr mag/cell

     iteration # 10     ecut=    30.00 Ry     beta= 0.70
     Davidson diagonalization with overlap
     ethr =  9.48E-07,  avg # of iterations =  2.0

     total cpu time spent up to now is       32.5 secs

     total energy              =    -148.27412098 Ry
     Harris-Foulkes estimate   =    -148.27494666 Ry
     estimated scf accuracy    <       0.00007661 Ry

     total magnetization       =     0.53 Bohr mag/cell
     absolute magnetization    =     0.56 Bohr mag/cell

     iteration # 11     ecut=    30.00 Ry     beta= 0.70
     Davidson diagonalization with overlap
     ethr =  4.26E-07,  avg # of iterations =  2.9

     total cpu time spent up to now is       36.4 secs

     total energy              =    -148.27520523 Ry
     Harris-Foulkes estimate   =    -148.27526490 Ry
     estimated scf accuracy    <       0.00001966 Ry

     total magnetization       =     0.24 Bohr mag/cell
     absolute magnetization    =     0.25 Bohr mag/cell

     iteration # 12     ecut=    30.00 Ry     beta= 0.70
     Davidson diagonalization with overlap
     ethr =  1.09E-07,  avg # of iterations =  2.3

     total cpu time spent up to now is       39.7 secs

     total energy              =    -148.27531621 Ry
     Harris-Foulkes estimate   =    -148.27531698 Ry
     estimated scf accuracy    <       0.00001520 Ry

     total magnetization       =     0.15 Bohr mag/cell
     absolute magnetization    =     0.15 Bohr mag/cell

     iteration # 13     ecut=    30.00 Ry     beta= 0.70
     Davidson diagonalization with overlap
     ethr =  8.44E-08,  avg # of iterations =  1.5

     total cpu time spent up to now is       42.3 secs

     total energy              =    -148.27515070 Ry
     Harris-Foulkes estimate   =    -148.27532264 Ry
     estimated scf accuracy    <       0.00000611 Ry

     total magnetization       =     0.13 Bohr mag/cell
     absolute magnetization    =     0.14 Bohr mag/cell

     iteration # 14     ecut=    30.00 Ry     beta= 0.70
     Davidson diagonalization with overlap
     ethr =  3.40E-08,  avg # of iterations =  3.0

     total cpu time spent up to now is       46.6 secs

     total energy              =    -148.27534205 Ry
     Harris-Foulkes estimate   =    -148.27534378 Ry
     estimated scf accuracy    <       0.00000015 Ry

     total magnetization       =     0.01 Bohr mag/cell
     absolute magnetization    =     0.01 Bohr mag/cell

     iteration # 15     ecut=    30.00 Ry     beta= 0.70
     Davidson diagonalization with overlap
     ethr =  8.45E-10,  avg # of iterations =  2.9

     total cpu time spent up to now is       50.5 secs

     total energy              =    -148.27534063 Ry
     Harris-Foulkes estimate   =    -148.27534407 Ry
     estimated scf accuracy    <       0.00000012 Ry

     total magnetization       =     0.02 Bohr mag/cell
     absolute magnetization    =     0.02 Bohr mag/cell

     iteration # 16     ecut=    30.00 Ry     beta= 0.70
     Davidson diagonalization with overlap
     ethr =  6.59E-10,  avg # of iterations =  3.0

     Magnetic moment per site:
     atom:    1    charge:    7.3898    magn:    0.0011    constr:    0.0000
     atom:    2    charge:    7.3898    magn:    0.0011    constr:    0.0000

     total cpu time spent up to now is       54.7 secs

     End of self-consistent calculation

     Number of k-points >= 100: set verbosity='high' to print the bands.

     the Fermi energy is    23.5428 ev

!    total energy              =    -148.27534460 Ry
     Harris-Foulkes estimate   =    -148.27534457 Ry
     estimated scf accuracy    <          2.1E-09 Ry

     The total energy is the sum of the following terms:

     one-electron contribution =      30.88346742 Ry
     hartree contribution      =      15.21409431 Ry
     xc contribution           =     -65.64871563 Ry
     ewald contribution        =    -128.72085678 Ry
     smearing contrib. (-TS)   =      -0.00333393 Ry

     total magnetization       =     0.00 Bohr mag/cell
     absolute magnetization    =     0.00 Bohr mag/cell

     convergence has been achieved in  16 iterations

     Forces acting on atoms (cartesian axes, Ry/au):

     atom    1 type  1   force =     0.00000000   -0.00000000    0.00000000
     atom    2 type  1   force =    -0.00000000   -0.00000000    0.00000000

     Total force =     0.000000     Total SCF correction =     0.000000


     Computing stress (Cartesian axis) and pressure

          total   stress  (Ry/bohr**3)                   (kbar)     P= 1823.43
   0.01259578   0.00000000   0.00000000       1852.90      0.00      0.00
   0.00000000   0.01259578   0.00000000          0.00   1852.90      0.00
   0.00000000  -0.00000000   0.01199480          0.00     -0.00   1764.50


     Writing output data file Co.HCP.save/

     init_run     :      1.76s CPU      1.80s WALL (       1 calls)
     electrons    :     51.06s CPU     52.61s WALL (       1 calls)
     forces       :      0.77s CPU      0.77s WALL (       1 calls)
     stress       :      1.23s CPU      1.25s WALL (       1 calls)

     Called by init_run:
     wfcinit      :      0.85s CPU      0.87s WALL (       1 calls)
     potinit      :      0.07s CPU      0.07s WALL (       1 calls)
     hinit0       :      0.73s CPU      0.73s WALL (       1 calls)

     Called by electrons:
     c_bands      :     42.12s CPU     43.02s WALL (      16 calls)
     sum_band     :      7.20s CPU      7.34s WALL (      16 calls)
     v_of_rho     :      0.31s CPU      0.31s WALL (      17 calls)
     newd         :      1.39s CPU      1.43s WALL (      17 calls)
     mix_rho      :      0.10s CPU      0.10s WALL (      16 calls)

     Called by c_bands:
     init_us_2    :      0.97s CPU      0.99s WALL (    5320 calls)
     cegterg      :     39.89s CPU     40.75s WALL (    2432 calls)

     Called by sum_band:
     sum_band:bec :      0.23s CPU      0.23s WALL (    2432 calls)
     addusdens    :      2.27s CPU      2.30s WALL (      16 calls)

     Called by *egterg:
     h_psi        :     19.83s CPU     20.29s WALL (    7832 calls)
     s_psi        :      4.38s CPU      4.50s WALL (    7832 calls)
     g_psi        :      0.12s CPU      0.12s WALL (    5248 calls)
     cdiaghg      :      5.74s CPU      5.84s WALL (    7680 calls)

     Called by h_psi:
     h_psi:pot    :     19.73s CPU     20.18s WALL (    7832 calls)
     h_psi:calbec :      4.84s CPU      4.96s WALL (    7832 calls)
     vloc_psi     :     10.56s CPU     10.79s WALL (    7832 calls)
     add_vuspsi   :      4.28s CPU      4.39s WALL (    7832 calls)

     General routines
     calbec       :      7.09s CPU      7.26s WALL (   11024 calls)
     fft          :      0.21s CPU      0.22s WALL (     191 calls)
     ffts         :      0.03s CPU      0.03s WALL (      66 calls)
     fftw         :      7.87s CPU      8.05s WALL (  197638 calls)
     interpolate  :      0.06s CPU      0.06s WALL (      34 calls)

     Parallel routines

     PWSCF        :     55.19s CPU     56.83s WALL


   This run was terminated on:  13:38:53  19Feb2020            

=------------------------------------------------------------------------------=
   JOB DONE.
=------------------------------------------------------------------------------=
