     Message from routine get_command_line:
     unexpected argument # 2     :-input

     Program PWSCF v.6.4.1 starts on 19Feb2020 at 13:32:26 

     This program is part of the open-source Quantum ESPRESSO suite
     for quantum simulation of materials; please cite
         "P. Giannozzi et al., J. Phys.:Condens. Matter 21 395502 (2009);
         "P. Giannozzi et al., J. Phys.:Condens. Matter 29 465901 (2017);
          URL http://www.quantum-espresso.org", 
     in publications or presentations arising from this work. More details at
     http://www.quantum-espresso.org/quote

     Parallel version (MPI), running on     1 processors

     MPI processes distributed on     1 nodes
     Waiting for input...
     Reading input from standard input

     Current dimensions of program PWSCF are:
     Max number of different atomic species (ntypx) = 10
     Max number of k-points (npk) =  40000
     Max angular momentum in pseudopotentials (lmaxx) =  3
               file Co.pz-nd-rrkjus.UPF: wavefunction(s)  4S 3D renormalized

     Subspace diagonalization in iterative solution of the eigenvalue problem:
     a serial algorithm will be used


     G-vector sticks info
     --------------------
     sticks:   dense  smooth     PW     G-vecs:    dense   smooth      PW
     Sum         265     121     55                 5805     1943     427



     bravais-lattice index     =            4
     lattice parameter (alat)  =       3.9600  a.u.
     unit-cell volume          =      87.8214 (a.u.)^3
     number of atoms/cell      =            2
     number of atomic types    =            1
     number of electrons       =        18.00
     number of Kohn-Sham states=           13
     kinetic-energy cutoff     =      30.0000  Ry
     charge density cutoff     =     250.0000  Ry
     convergence threshold     =      1.0E-08
     mixing beta               =       0.7000
     number of iterations used =            8  plain     mixing
     Exchange-correlation      =  SLA  PZ   NOGX NOGC ( 1  1  0  0 0 0)

     celldm(1)=   3.960000  celldm(2)=   0.000000  celldm(3)=   1.632993
     celldm(4)=   0.000000  celldm(5)=   0.000000  celldm(6)=   0.000000

     crystal axes: (cart. coord. in units of alat)
               a(1) = (   1.000000   0.000000   0.000000 )  
               a(2) = (  -0.500000   0.866025   0.000000 )  
               a(3) = (   0.000000   0.000000   1.632993 )  

     reciprocal axes: (cart. coord. in units 2 pi/alat)
               b(1) = (  1.000000  0.577350 -0.000000 )  
               b(2) = (  0.000000  1.154701  0.000000 )  
               b(3) = (  0.000000 -0.000000  0.612372 )  


     PseudoPot. # 1 for Co read from file:
     ./Co.pz-nd-rrkjus.UPF
     MD5 check sum: c80159f6ca3a93d3df3cfc6468bb3c3d
     Pseudo is Ultrasoft + core correction, Zval =  9.0
     Generated by new atomic code, or converted to UPF format
     Using radial grid of  961 points,  6 beta functions with: 
                l(1) =   0
                l(2) =   0
                l(3) =   1
                l(4) =   1
                l(5) =   2
                l(6) =   2
     Q(r) pseudized with 0 coefficients 


     atomic species   valence    mass     pseudopotential
        Co             9.00    58.93300     Co( 1.00)

     Starting magnetic structure 
     atomic species   magnetization
        Co           0.700

     24 Sym. Ops., with inversion, found (12 have fractional translation)



   Cartesian axes

     site n.     atom                  positions (alat units)
         1           Co  tau(   1) = (  -0.0000000   0.5773503   0.4082483  )
         2           Co  tau(   2) = (   0.5000000   0.2886751   1.2247449  )

     number of k points=    76  Marzari-Vanderbilt smearing, width (Ry)=  0.0300
                       cart. coord. in units 2pi/alat
        k(    1) = (   0.0000000   0.0000000   0.0000000), wk =   0.0011574
        k(    2) = (   0.0000000   0.0000000   0.1020621), wk =   0.0023148
        k(    3) = (   0.0000000   0.0000000   0.2041241), wk =   0.0023148
        k(    4) = (   0.0000000   0.0000000  -0.3061862), wk =   0.0011574
        k(    5) = (   0.0000000   0.0962250   0.0000000), wk =   0.0069444
        k(    6) = (   0.0000000   0.0962250   0.1020621), wk =   0.0138889
        k(    7) = (   0.0000000   0.0962250   0.2041241), wk =   0.0138889
        k(    8) = (   0.0000000   0.0962250  -0.3061862), wk =   0.0069444
        k(    9) = (   0.0000000   0.1924501   0.0000000), wk =   0.0069444
        k(   10) = (   0.0000000   0.1924501   0.1020621), wk =   0.0138889
        k(   11) = (   0.0000000   0.1924501   0.2041241), wk =   0.0138889
        k(   12) = (   0.0000000   0.1924501  -0.3061862), wk =   0.0069444
        k(   13) = (   0.0000000   0.2886751   0.0000000), wk =   0.0069444
        k(   14) = (   0.0000000   0.2886751   0.1020621), wk =   0.0138889
        k(   15) = (   0.0000000   0.2886751   0.2041241), wk =   0.0138889
        k(   16) = (   0.0000000   0.2886751  -0.3061862), wk =   0.0069444
        k(   17) = (   0.0000000   0.3849002   0.0000000), wk =   0.0069444
        k(   18) = (   0.0000000   0.3849002   0.1020621), wk =   0.0138889
        k(   19) = (   0.0000000   0.3849002   0.2041241), wk =   0.0138889
        k(   20) = (   0.0000000   0.3849002  -0.3061862), wk =   0.0069444
        k(   21) = (   0.0000000   0.4811252   0.0000000), wk =   0.0069444
        k(   22) = (   0.0000000   0.4811252   0.1020621), wk =   0.0138889
        k(   23) = (   0.0000000   0.4811252   0.2041241), wk =   0.0138889
        k(   24) = (   0.0000000   0.4811252  -0.3061862), wk =   0.0069444
        k(   25) = (   0.0000000  -0.5773503   0.0000000), wk =   0.0034722
        k(   26) = (   0.0000000  -0.5773503   0.1020621), wk =   0.0069444
        k(   27) = (   0.0000000  -0.5773503   0.2041241), wk =   0.0069444
        k(   28) = (   0.0000000  -0.5773503  -0.3061862), wk =   0.0034722
        k(   29) = (   0.0833333   0.1443376   0.0000000), wk =   0.0069444
        k(   30) = (   0.0833333   0.1443376   0.1020621), wk =   0.0138889
        k(   31) = (   0.0833333   0.1443376   0.2041241), wk =   0.0138889
        k(   32) = (   0.0833333   0.1443376  -0.3061862), wk =   0.0069444
        k(   33) = (   0.0833333   0.2405626   0.0000000), wk =   0.0138889
        k(   34) = (   0.0833333   0.2405626   0.1020621), wk =   0.0277778
        k(   35) = (   0.0833333   0.2405626   0.2041241), wk =   0.0277778
        k(   36) = (   0.0833333   0.2405626  -0.3061862), wk =   0.0138889
        k(   37) = (   0.0833333   0.3367877   0.0000000), wk =   0.0138889
        k(   38) = (   0.0833333   0.3367877   0.1020621), wk =   0.0277778
        k(   39) = (   0.0833333   0.3367877   0.2041241), wk =   0.0277778
        k(   40) = (   0.0833333   0.3367877  -0.3061862), wk =   0.0138889
        k(   41) = (   0.0833333   0.4330127   0.0000000), wk =   0.0138889
        k(   42) = (   0.0833333   0.4330127   0.1020621), wk =   0.0277778
        k(   43) = (   0.0833333   0.4330127   0.2041241), wk =   0.0277778
        k(   44) = (   0.0833333   0.4330127  -0.3061862), wk =   0.0138889
        k(   45) = (   0.0833333   0.5292377   0.0000000), wk =   0.0138889
        k(   46) = (   0.0833333   0.5292377   0.1020621), wk =   0.0277778
        k(   47) = (   0.0833333   0.5292377   0.2041241), wk =   0.0277778
        k(   48) = (   0.0833333   0.5292377  -0.3061862), wk =   0.0138889
        k(   49) = (   0.1666667   0.2886751   0.0000000), wk =   0.0069444
        k(   50) = (   0.1666667   0.2886751   0.1020621), wk =   0.0138889
        k(   51) = (   0.1666667   0.2886751   0.2041241), wk =   0.0138889
        k(   52) = (   0.1666667   0.2886751  -0.3061862), wk =   0.0069444
        k(   53) = (   0.1666667   0.3849002   0.0000000), wk =   0.0138889
        k(   54) = (   0.1666667   0.3849002   0.1020621), wk =   0.0277778
        k(   55) = (   0.1666667   0.3849002   0.2041241), wk =   0.0277778
        k(   56) = (   0.1666667   0.3849002  -0.3061862), wk =   0.0138889
        k(   57) = (   0.1666667   0.4811252   0.0000000), wk =   0.0138889
        k(   58) = (   0.1666667   0.4811252   0.1020621), wk =   0.0277778
        k(   59) = (   0.1666667   0.4811252   0.2041241), wk =   0.0277778
        k(   60) = (   0.1666667   0.4811252  -0.3061862), wk =   0.0138889
        k(   61) = (   0.1666667   0.5773503   0.0000000), wk =   0.0069444
        k(   62) = (   0.1666667   0.5773503   0.1020621), wk =   0.0138889
        k(   63) = (   0.1666667   0.5773503   0.2041241), wk =   0.0138889
        k(   64) = (   0.1666667   0.5773503  -0.3061862), wk =   0.0069444
        k(   65) = (   0.2500000   0.4330127   0.0000000), wk =   0.0069444
        k(   66) = (   0.2500000   0.4330127   0.1020621), wk =   0.0138889
        k(   67) = (   0.2500000   0.4330127   0.2041241), wk =   0.0138889
        k(   68) = (   0.2500000   0.4330127  -0.3061862), wk =   0.0069444
        k(   69) = (   0.2500000   0.5292377   0.0000000), wk =   0.0138889
        k(   70) = (   0.2500000   0.5292377   0.1020621), wk =   0.0277778
        k(   71) = (   0.2500000   0.5292377   0.2041241), wk =   0.0277778
        k(   72) = (   0.2500000   0.5292377  -0.3061862), wk =   0.0138889
        k(   73) = (   0.3333333   0.5773503   0.0000000), wk =   0.0023148
        k(   74) = (   0.3333333   0.5773503   0.1020621), wk =   0.0046296
        k(   75) = (   0.3333333   0.5773503   0.2041241), wk =   0.0046296
        k(   76) = (   0.3333333   0.5773503  -0.3061862), wk =   0.0023148

     Dense  grid:     5805 G-vectors     FFT dimensions: (  20,  20,  36)

     Smooth grid:     1943 G-vectors     FFT dimensions: (  15,  15,  24)

     Estimated max dynamical RAM per process >      31.97 MB
     Generating pointlists ...
     new r_m :   0.4125 (alat units)  1.6335 (a.u.) for type    1

     Check: negative core charge=   -0.000002

     Initial potential from superposition of free atoms

     starting charge   17.99923, renormalised to   18.00000
     Starting wfcs are   12 randomized atomic wfcs +    1 random wfcs

     total cpu time spent up to now is        1.8 secs

     Self-consistent Calculation

     iteration #  1     ecut=    30.00 Ry     beta= 0.70
     Davidson diagonalization with overlap
     ethr =  1.00E-02,  avg # of iterations =  3.6

     total cpu time spent up to now is        5.4 secs

     total energy              =    -147.82782055 Ry
     Harris-Foulkes estimate   =    -147.56510062 Ry
     estimated scf accuracy    <       0.95890847 Ry

     total magnetization       =     3.84 Bohr mag/cell
     absolute magnetization    =     3.84 Bohr mag/cell

     iteration #  2     ecut=    30.00 Ry     beta= 0.70
     Davidson diagonalization with overlap
     ethr =  5.33E-03,  avg # of iterations =  2.0

     total cpu time spent up to now is        8.2 secs

     total energy              =    -148.01678528 Ry
     Harris-Foulkes estimate   =    -148.09008719 Ry
     estimated scf accuracy    <       0.31147122 Ry

     total magnetization       =     2.94 Bohr mag/cell
     absolute magnetization    =     3.02 Bohr mag/cell

     iteration #  3     ecut=    30.00 Ry     beta= 0.70
     Davidson diagonalization with overlap
     ethr =  1.73E-03,  avg # of iterations =  2.0

     total cpu time spent up to now is       11.0 secs

     total energy              =    -148.10733749 Ry
     Harris-Foulkes estimate   =    -148.09504080 Ry
     estimated scf accuracy    <       0.06608431 Ry

     total magnetization       =     2.61 Bohr mag/cell
     absolute magnetization    =     2.70 Bohr mag/cell

     iteration #  4     ecut=    30.00 Ry     beta= 0.70
     Davidson diagonalization with overlap
     ethr =  3.67E-04,  avg # of iterations =  1.3

     total cpu time spent up to now is       13.3 secs

     total energy              =    -148.11862945 Ry
     Harris-Foulkes estimate   =    -148.13085971 Ry
     estimated scf accuracy    <       0.00772464 Ry

     total magnetization       =     1.64 Bohr mag/cell
     absolute magnetization    =     1.78 Bohr mag/cell

     iteration #  5     ecut=    30.00 Ry     beta= 0.70
     Davidson diagonalization with overlap
     ethr =  4.29E-05,  avg # of iterations =  1.2

     total cpu time spent up to now is       15.5 secs

     total energy              =    -148.12205445 Ry
     Harris-Foulkes estimate   =    -148.12130911 Ry
     estimated scf accuracy    <       0.01533092 Ry

     total magnetization       =     1.99 Bohr mag/cell
     absolute magnetization    =     2.15 Bohr mag/cell

     iteration #  6     ecut=    30.00 Ry     beta= 0.70
     Davidson diagonalization with overlap
     ethr =  4.29E-05,  avg # of iterations =  2.1

     total cpu time spent up to now is       18.4 secs

     total energy              =    -148.14153533 Ry
     Harris-Foulkes estimate   =    -148.14093150 Ry
     estimated scf accuracy    <       0.00162493 Ry

     total magnetization       =     1.00 Bohr mag/cell
     absolute magnetization    =     1.06 Bohr mag/cell

     iteration #  7     ecut=    30.00 Ry     beta= 0.70
     Davidson diagonalization with overlap
     ethr =  9.03E-06,  avg # of iterations =  1.1

     total cpu time spent up to now is       20.6 secs

     total energy              =    -148.14056132 Ry
     Harris-Foulkes estimate   =    -148.14173775 Ry
     estimated scf accuracy    <       0.00119552 Ry

     total magnetization       =     0.89 Bohr mag/cell
     absolute magnetization    =     0.95 Bohr mag/cell

     iteration #  8     ecut=    30.00 Ry     beta= 0.70
     Davidson diagonalization with overlap
     ethr =  6.64E-06,  avg # of iterations =  1.0

     total cpu time spent up to now is       23.0 secs

     total energy              =    -148.13968476 Ry
     Harris-Foulkes estimate   =    -148.14080269 Ry
     estimated scf accuracy    <       0.00162617 Ry

     total magnetization       =     1.01 Bohr mag/cell
     absolute magnetization    =     1.08 Bohr mag/cell

     iteration #  9     ecut=    30.00 Ry     beta= 0.70
     Davidson diagonalization with overlap
     ethr =  6.64E-06,  avg # of iterations =  2.0

     total cpu time spent up to now is       25.9 secs

     total energy              =    -148.14387552 Ry
     Harris-Foulkes estimate   =    -148.14383535 Ry
     estimated scf accuracy    <       0.00032892 Ry

     total magnetization       =     0.49 Bohr mag/cell
     absolute magnetization    =     0.52 Bohr mag/cell

     iteration # 10     ecut=    30.00 Ry     beta= 0.70
     Davidson diagonalization with overlap
     ethr =  1.83E-06,  avg # of iterations =  1.0

     total cpu time spent up to now is       28.3 secs

     total energy              =    -148.14276419 Ry
     Harris-Foulkes estimate   =    -148.14387858 Ry
     estimated scf accuracy    <       0.00031690 Ry

     total magnetization       =     0.48 Bohr mag/cell
     absolute magnetization    =     0.51 Bohr mag/cell

     iteration # 11     ecut=    30.00 Ry     beta= 0.70
     Davidson diagonalization with overlap
     ethr =  1.76E-06,  avg # of iterations =  2.3

     total cpu time spent up to now is       31.6 secs

     total energy              =    -148.14467037 Ry
     Harris-Foulkes estimate   =    -148.14466304 Ry
     estimated scf accuracy    <       0.00005231 Ry

     total magnetization       =     0.13 Bohr mag/cell
     absolute magnetization    =     0.14 Bohr mag/cell

     iteration # 12     ecut=    30.00 Ry     beta= 0.70
     Davidson diagonalization with overlap
     ethr =  2.91E-07,  avg # of iterations =  1.2

     total cpu time spent up to now is       33.8 secs

     total energy              =    -148.14461879 Ry
     Harris-Foulkes estimate   =    -148.14470238 Ry
     estimated scf accuracy    <       0.00006369 Ry

     total magnetization       =     0.08 Bohr mag/cell
     absolute magnetization    =     0.09 Bohr mag/cell

     iteration # 13     ecut=    30.00 Ry     beta= 0.70
     Davidson diagonalization with overlap
     ethr =  2.91E-07,  avg # of iterations =  1.0

     total cpu time spent up to now is       36.0 secs

     total energy              =    -148.14465695 Ry
     Harris-Foulkes estimate   =    -148.14466224 Ry
     estimated scf accuracy    <       0.00006136 Ry

     total magnetization       =     0.14 Bohr mag/cell
     absolute magnetization    =     0.14 Bohr mag/cell

     iteration # 14     ecut=    30.00 Ry     beta= 0.70
     Davidson diagonalization with overlap
     ethr =  2.91E-07,  avg # of iterations =  1.1

     total cpu time spent up to now is       38.2 secs

     total energy              =    -148.14470581 Ry
     Harris-Foulkes estimate   =    -148.14470600 Ry
     estimated scf accuracy    <       0.00005756 Ry

     total magnetization       =     0.08 Bohr mag/cell
     absolute magnetization    =     0.08 Bohr mag/cell

     iteration # 15     ecut=    30.00 Ry     beta= 0.70
     Davidson diagonalization with overlap
     ethr =  2.91E-07,  avg # of iterations =  1.0

     total cpu time spent up to now is       40.4 secs

     total energy              =    -148.14469209 Ry
     Harris-Foulkes estimate   =    -148.14470635 Ry
     estimated scf accuracy    <       0.00007812 Ry

     total magnetization       =     0.08 Bohr mag/cell
     absolute magnetization    =     0.08 Bohr mag/cell

     iteration # 16     ecut=    30.00 Ry     beta= 0.70
     Davidson diagonalization with overlap
     ethr =  2.91E-07,  avg # of iterations =  1.0

     total cpu time spent up to now is       42.6 secs

     total energy              =    -148.14466523 Ry
     Harris-Foulkes estimate   =    -148.14469504 Ry
     estimated scf accuracy    <       0.00009957 Ry

     total magnetization       =     0.09 Bohr mag/cell
     absolute magnetization    =     0.10 Bohr mag/cell

     iteration # 17     ecut=    30.00 Ry     beta= 0.70
     Davidson diagonalization with overlap
     ethr =  2.91E-07,  avg # of iterations =  1.5

     total cpu time spent up to now is       45.1 secs

     total energy              =    -148.14470564 Ry
     Harris-Foulkes estimate   =    -148.14472931 Ry
     estimated scf accuracy    <       0.00002183 Ry

     total magnetization       =     0.03 Bohr mag/cell
     absolute magnetization    =     0.03 Bohr mag/cell

     iteration # 18     ecut=    30.00 Ry     beta= 0.70
     Davidson diagonalization with overlap
     ethr =  1.21E-07,  avg # of iterations =  1.5

     total cpu time spent up to now is       47.6 secs

     total energy              =    -148.14473204 Ry
     Harris-Foulkes estimate   =    -148.14473493 Ry
     estimated scf accuracy    <       0.00000115 Ry

     total magnetization       =    -0.01 Bohr mag/cell
     absolute magnetization    =     0.01 Bohr mag/cell

     iteration # 19     ecut=    30.00 Ry     beta= 0.70
     Davidson diagonalization with overlap
     ethr =  6.38E-09,  avg # of iterations =  2.3

     total cpu time spent up to now is       50.6 secs

     total energy              =    -148.14473573 Ry
     Harris-Foulkes estimate   =    -148.14473571 Ry
     estimated scf accuracy    <       0.00000001 Ry

     total magnetization       =     0.00 Bohr mag/cell
     absolute magnetization    =     0.00 Bohr mag/cell

     iteration # 20     ecut=    30.00 Ry     beta= 0.70
     Davidson diagonalization with overlap
     ethr =  7.19E-11,  avg # of iterations =  2.9

     Magnetic moment per site:
     atom:    1    charge:    7.3332    magn:    0.0008    constr:    0.0000
     atom:    2    charge:    7.3332    magn:    0.0008    constr:    0.0000

     total cpu time spent up to now is       53.9 secs

     End of self-consistent calculation

     Number of k-points >= 100: set verbosity='high' to print the bands.

     the Fermi energy is    26.1707 ev

!    total energy              =    -148.14473576 Ry
     Harris-Foulkes estimate   =    -148.14473575 Ry
     estimated scf accuracy    <          3.6E-09 Ry

     The total energy is the sum of the following terms:

     one-electron contribution =      36.33036589 Ry
     hartree contribution      =      14.10372007 Ry
     xc contribution           =     -65.95497528 Ry
     ewald contribution        =    -132.62148880 Ry
     smearing contrib. (-TS)   =      -0.00235764 Ry

     total magnetization       =     0.00 Bohr mag/cell
     absolute magnetization    =     0.00 Bohr mag/cell

     convergence has been achieved in  20 iterations

     Forces acting on atoms (cartesian axes, Ry/au):

     atom    1 type  1   force =     0.00000000    0.00000000    0.00000000
     atom    2 type  1   force =    -0.00000000   -0.00000000    0.00000000

     Total force =     0.000000     Total SCF correction =     0.000000


     Computing stress (Cartesian axis) and pressure

          total   stress  (Ry/bohr**3)                   (kbar)     P= 2896.96
   0.01990784   0.00000000   0.00000000       2928.54      0.00      0.00
   0.00000000   0.01990784  -0.00000000          0.00   2928.54     -0.00
   0.00000000   0.00000000   0.01926384          0.00      0.00   2833.81


     Writing output data file Co.HCP.save/

     init_run     :      1.45s CPU      1.49s WALL (       1 calls)
     electrons    :     50.96s CPU     52.11s WALL (       1 calls)
     forces       :      0.66s CPU      0.66s WALL (       1 calls)
     stress       :      1.09s CPU      1.09s WALL (       1 calls)

     Called by init_run:
     wfcinit      :      0.71s CPU      0.73s WALL (       1 calls)
     potinit      :      0.05s CPU      0.05s WALL (       1 calls)
     hinit0       :      0.61s CPU      0.62s WALL (       1 calls)

     Called by electrons:
     c_bands      :     40.79s CPU     41.78s WALL (      20 calls)
     sum_band     :      8.38s CPU      8.53s WALL (      20 calls)
     v_of_rho     :      0.26s CPU      0.26s WALL (      21 calls)
     newd         :      1.51s CPU      1.52s WALL (      21 calls)
     mix_rho      :      0.08s CPU      0.08s WALL (      20 calls)

     Called by c_bands:
     init_us_2    :      1.30s CPU      1.33s WALL (    6536 calls)
     cegterg      :     38.16s CPU     39.10s WALL (    3040 calls)

     Called by sum_band:
     sum_band:bec :      0.28s CPU      0.29s WALL (    3040 calls)
     addusdens    :      2.48s CPU      2.50s WALL (      20 calls)

     Called by *egterg:
     h_psi        :     20.25s CPU     20.79s WALL (    8237 calls)
     s_psi        :      4.24s CPU      4.36s WALL (    8237 calls)
     g_psi        :      0.10s CPU      0.10s WALL (    5045 calls)
     cdiaghg      :      4.78s CPU      4.88s WALL (    8085 calls)

     Called by h_psi:
     h_psi:pot    :     20.15s CPU     20.68s WALL (    8237 calls)
     h_psi:calbec :      4.70s CPU      4.84s WALL (    8237 calls)
     vloc_psi     :     11.16s CPU     11.43s WALL (    8237 calls)
     add_vuspsi   :      4.23s CPU      4.36s WALL (    8237 calls)

     General routines
     calbec       :      7.08s CPU      7.28s WALL (   12037 calls)
     fft          :      0.10s CPU      0.10s WALL (     235 calls)
     ffts         :      0.02s CPU      0.02s WALL (      82 calls)
     fftw         :      8.44s CPU      8.65s WALL (  223930 calls)
     interpolate  :      0.04s CPU      0.04s WALL (      42 calls)

     Parallel routines

     PWSCF        :     54.52s CPU     55.76s WALL


   This run was terminated on:  13:33:22  19Feb2020            

=------------------------------------------------------------------------------=
   JOB DONE.
=------------------------------------------------------------------------------=
