     Message from routine get_command_line:
     unexpected argument # 2     :-input

     Program PWSCF v.6.4.1 starts on 19Feb2020 at 14:58: 8 

     This program is part of the open-source Quantum ESPRESSO suite
     for quantum simulation of materials; please cite
         "P. Giannozzi et al., J. Phys.:Condens. Matter 21 395502 (2009);
         "P. Giannozzi et al., J. Phys.:Condens. Matter 29 465901 (2017);
          URL http://www.quantum-espresso.org", 
     in publications or presentations arising from this work. More details at
     http://www.quantum-espresso.org/quote

     Parallel version (MPI), running on     1 processors

     MPI processes distributed on     1 nodes
     Waiting for input...
     Reading input from standard input

     Current dimensions of program PWSCF are:
     Max number of different atomic species (ntypx) = 10
     Max number of k-points (npk) =  40000
     Max angular momentum in pseudopotentials (lmaxx) =  3
               file Co.pz-nd-rrkjus.UPF: wavefunction(s)  4S 3D renormalized

     Subspace diagonalization in iterative solution of the eigenvalue problem:
     a serial algorithm will be used


     G-vector sticks info
     --------------------
     sticks:   dense  smooth     PW     G-vecs:    dense   smooth      PW
     Sum         499     241     85                14547     4795     941



     bravais-lattice index     =            4
     lattice parameter (alat)  =       5.3600  a.u.
     unit-cell volume          =     217.7757 (a.u.)^3
     number of atoms/cell      =            2
     number of atomic types    =            1
     number of electrons       =        18.00
     number of Kohn-Sham states=           13
     kinetic-energy cutoff     =      30.0000  Ry
     charge density cutoff     =     250.0000  Ry
     convergence threshold     =      1.0E-08
     mixing beta               =       0.7000
     number of iterations used =            8  plain     mixing
     Exchange-correlation      =  SLA  PZ   NOGX NOGC ( 1  1  0  0 0 0)

     celldm(1)=   5.360000  celldm(2)=   0.000000  celldm(3)=   1.632993
     celldm(4)=   0.000000  celldm(5)=   0.000000  celldm(6)=   0.000000

     crystal axes: (cart. coord. in units of alat)
               a(1) = (   1.000000   0.000000   0.000000 )  
               a(2) = (  -0.500000   0.866025   0.000000 )  
               a(3) = (   0.000000   0.000000   1.632993 )  

     reciprocal axes: (cart. coord. in units 2 pi/alat)
               b(1) = (  1.000000  0.577350 -0.000000 )  
               b(2) = (  0.000000  1.154701  0.000000 )  
               b(3) = (  0.000000 -0.000000  0.612372 )  


     PseudoPot. # 1 for Co read from file:
     ./Co.pz-nd-rrkjus.UPF
     MD5 check sum: c80159f6ca3a93d3df3cfc6468bb3c3d
     Pseudo is Ultrasoft + core correction, Zval =  9.0
     Generated by new atomic code, or converted to UPF format
     Using radial grid of  961 points,  6 beta functions with: 
                l(1) =   0
                l(2) =   0
                l(3) =   1
                l(4) =   1
                l(5) =   2
                l(6) =   2
     Q(r) pseudized with 0 coefficients 


     atomic species   valence    mass     pseudopotential
        Co             9.00    58.93300     Co( 1.00)

     Starting magnetic structure 
     atomic species   magnetization
        Co           0.700

     24 Sym. Ops., with inversion, found (12 have fractional translation)



   Cartesian axes

     site n.     atom                  positions (alat units)
         1           Co  tau(   1) = (  -0.0000000   0.5773503   0.4082483  )
         2           Co  tau(   2) = (   0.5000000   0.2886751   1.2247449  )

     number of k points=    76  Marzari-Vanderbilt smearing, width (Ry)=  0.0300
                       cart. coord. in units 2pi/alat
        k(    1) = (   0.0000000   0.0000000   0.0000000), wk =   0.0011574
        k(    2) = (   0.0000000   0.0000000   0.1020621), wk =   0.0023148
        k(    3) = (   0.0000000   0.0000000   0.2041241), wk =   0.0023148
        k(    4) = (   0.0000000   0.0000000  -0.3061862), wk =   0.0011574
        k(    5) = (   0.0000000   0.0962250   0.0000000), wk =   0.0069444
        k(    6) = (   0.0000000   0.0962250   0.1020621), wk =   0.0138889
        k(    7) = (   0.0000000   0.0962250   0.2041241), wk =   0.0138889
        k(    8) = (   0.0000000   0.0962250  -0.3061862), wk =   0.0069444
        k(    9) = (   0.0000000   0.1924501   0.0000000), wk =   0.0069444
        k(   10) = (   0.0000000   0.1924501   0.1020621), wk =   0.0138889
        k(   11) = (   0.0000000   0.1924501   0.2041241), wk =   0.0138889
        k(   12) = (   0.0000000   0.1924501  -0.3061862), wk =   0.0069444
        k(   13) = (   0.0000000   0.2886751   0.0000000), wk =   0.0069444
        k(   14) = (   0.0000000   0.2886751   0.1020621), wk =   0.0138889
        k(   15) = (   0.0000000   0.2886751   0.2041241), wk =   0.0138889
        k(   16) = (   0.0000000   0.2886751  -0.3061862), wk =   0.0069444
        k(   17) = (   0.0000000   0.3849002   0.0000000), wk =   0.0069444
        k(   18) = (   0.0000000   0.3849002   0.1020621), wk =   0.0138889
        k(   19) = (   0.0000000   0.3849002   0.2041241), wk =   0.0138889
        k(   20) = (   0.0000000   0.3849002  -0.3061862), wk =   0.0069444
        k(   21) = (   0.0000000   0.4811252   0.0000000), wk =   0.0069444
        k(   22) = (   0.0000000   0.4811252   0.1020621), wk =   0.0138889
        k(   23) = (   0.0000000   0.4811252   0.2041241), wk =   0.0138889
        k(   24) = (   0.0000000   0.4811252  -0.3061862), wk =   0.0069444
        k(   25) = (   0.0000000  -0.5773503   0.0000000), wk =   0.0034722
        k(   26) = (   0.0000000  -0.5773503   0.1020621), wk =   0.0069444
        k(   27) = (   0.0000000  -0.5773503   0.2041241), wk =   0.0069444
        k(   28) = (   0.0000000  -0.5773503  -0.3061862), wk =   0.0034722
        k(   29) = (   0.0833333   0.1443376   0.0000000), wk =   0.0069444
        k(   30) = (   0.0833333   0.1443376   0.1020621), wk =   0.0138889
        k(   31) = (   0.0833333   0.1443376   0.2041241), wk =   0.0138889
        k(   32) = (   0.0833333   0.1443376  -0.3061862), wk =   0.0069444
        k(   33) = (   0.0833333   0.2405626   0.0000000), wk =   0.0138889
        k(   34) = (   0.0833333   0.2405626   0.1020621), wk =   0.0277778
        k(   35) = (   0.0833333   0.2405626   0.2041241), wk =   0.0277778
        k(   36) = (   0.0833333   0.2405626  -0.3061862), wk =   0.0138889
        k(   37) = (   0.0833333   0.3367877   0.0000000), wk =   0.0138889
        k(   38) = (   0.0833333   0.3367877   0.1020621), wk =   0.0277778
        k(   39) = (   0.0833333   0.3367877   0.2041241), wk =   0.0277778
        k(   40) = (   0.0833333   0.3367877  -0.3061862), wk =   0.0138889
        k(   41) = (   0.0833333   0.4330127   0.0000000), wk =   0.0138889
        k(   42) = (   0.0833333   0.4330127   0.1020621), wk =   0.0277778
        k(   43) = (   0.0833333   0.4330127   0.2041241), wk =   0.0277778
        k(   44) = (   0.0833333   0.4330127  -0.3061862), wk =   0.0138889
        k(   45) = (   0.0833333   0.5292377   0.0000000), wk =   0.0138889
        k(   46) = (   0.0833333   0.5292377   0.1020621), wk =   0.0277778
        k(   47) = (   0.0833333   0.5292377   0.2041241), wk =   0.0277778
        k(   48) = (   0.0833333   0.5292377  -0.3061862), wk =   0.0138889
        k(   49) = (   0.1666667   0.2886751   0.0000000), wk =   0.0069444
        k(   50) = (   0.1666667   0.2886751   0.1020621), wk =   0.0138889
        k(   51) = (   0.1666667   0.2886751   0.2041241), wk =   0.0138889
        k(   52) = (   0.1666667   0.2886751  -0.3061862), wk =   0.0069444
        k(   53) = (   0.1666667   0.3849002   0.0000000), wk =   0.0138889
        k(   54) = (   0.1666667   0.3849002   0.1020621), wk =   0.0277778
        k(   55) = (   0.1666667   0.3849002   0.2041241), wk =   0.0277778
        k(   56) = (   0.1666667   0.3849002  -0.3061862), wk =   0.0138889
        k(   57) = (   0.1666667   0.4811252   0.0000000), wk =   0.0138889
        k(   58) = (   0.1666667   0.4811252   0.1020621), wk =   0.0277778
        k(   59) = (   0.1666667   0.4811252   0.2041241), wk =   0.0277778
        k(   60) = (   0.1666667   0.4811252  -0.3061862), wk =   0.0138889
        k(   61) = (   0.1666667   0.5773503   0.0000000), wk =   0.0069444
        k(   62) = (   0.1666667   0.5773503   0.1020621), wk =   0.0138889
        k(   63) = (   0.1666667   0.5773503   0.2041241), wk =   0.0138889
        k(   64) = (   0.1666667   0.5773503  -0.3061862), wk =   0.0069444
        k(   65) = (   0.2500000   0.4330127   0.0000000), wk =   0.0069444
        k(   66) = (   0.2500000   0.4330127   0.1020621), wk =   0.0138889
        k(   67) = (   0.2500000   0.4330127   0.2041241), wk =   0.0138889
        k(   68) = (   0.2500000   0.4330127  -0.3061862), wk =   0.0069444
        k(   69) = (   0.2500000   0.5292377   0.0000000), wk =   0.0138889
        k(   70) = (   0.2500000   0.5292377   0.1020621), wk =   0.0277778
        k(   71) = (   0.2500000   0.5292377   0.2041241), wk =   0.0277778
        k(   72) = (   0.2500000   0.5292377  -0.3061862), wk =   0.0138889
        k(   73) = (   0.3333333   0.5773503   0.0000000), wk =   0.0023148
        k(   74) = (   0.3333333   0.5773503   0.1020621), wk =   0.0046296
        k(   75) = (   0.3333333   0.5773503   0.2041241), wk =   0.0046296
        k(   76) = (   0.3333333   0.5773503  -0.3061862), wk =   0.0023148

     Dense  grid:    14547 G-vectors     FFT dimensions: (  27,  27,  48)

     Smooth grid:     4795 G-vectors     FFT dimensions: (  20,  20,  32)

     Estimated max dynamical RAM per process >      78.85 MB
     Generating pointlists ...
     new r_m :   0.4125 (alat units)  2.2110 (a.u.) for type    1

     Check: negative core charge=   -0.000062

     Initial potential from superposition of free atoms

     starting charge   17.99923, renormalised to   18.00000
     Starting wfcs are   12 randomized atomic wfcs +    1 random wfcs

     total cpu time spent up to now is        3.0 secs

     Self-consistent Calculation

     iteration #  1     ecut=    30.00 Ry     beta= 0.70
     Davidson diagonalization with overlap
     ethr =  1.00E-02,  avg # of iterations =  3.2

     total cpu time spent up to now is       10.0 secs

     total energy              =    -147.49928390 Ry
     Harris-Foulkes estimate   =    -148.11017414 Ry
     estimated scf accuracy    <       1.38764850 Ry

     total magnetization       =     5.84 Bohr mag/cell
     absolute magnetization    =     5.87 Bohr mag/cell

     iteration #  2     ecut=    30.00 Ry     beta= 0.70
     Davidson diagonalization with overlap
     ethr =  7.71E-03,  avg # of iterations =  2.9

     total cpu time spent up to now is       17.6 secs

     total energy              =    -147.66763602 Ry
     Harris-Foulkes estimate   =    -149.02425397 Ry
     estimated scf accuracy    <       3.93569098 Ry

     total magnetization       =     2.81 Bohr mag/cell
     absolute magnetization    =     2.94 Bohr mag/cell

     iteration #  3     ecut=    30.00 Ry     beta= 0.70
     Davidson diagonalization with overlap
     ethr =  7.71E-03,  avg # of iterations =  2.1

     total cpu time spent up to now is       24.2 secs

     total energy              =    -148.25418968 Ry
     Harris-Foulkes estimate   =    -148.22256057 Ry
     estimated scf accuracy    <       0.03856461 Ry

     total magnetization       =     4.20 Bohr mag/cell
     absolute magnetization    =     4.42 Bohr mag/cell

     iteration #  4     ecut=    30.00 Ry     beta= 0.70
     Davidson diagonalization with overlap
     ethr =  2.14E-04,  avg # of iterations =  2.4

     total cpu time spent up to now is       30.6 secs

     total energy              =    -148.26620552 Ry
     Harris-Foulkes estimate   =    -148.26569995 Ry
     estimated scf accuracy    <       0.00147118 Ry

     total magnetization       =     3.73 Bohr mag/cell
     absolute magnetization    =     4.12 Bohr mag/cell

     iteration #  5     ecut=    30.00 Ry     beta= 0.70
     Davidson diagonalization with overlap
     ethr =  8.17E-06,  avg # of iterations =  3.1

     total cpu time spent up to now is       39.1 secs

     total energy              =    -148.26711949 Ry
     Harris-Foulkes estimate   =    -148.26703835 Ry
     estimated scf accuracy    <       0.00005900 Ry

     total magnetization       =     3.64 Bohr mag/cell
     absolute magnetization    =     4.04 Bohr mag/cell

     iteration #  6     ecut=    30.00 Ry     beta= 0.70
     Davidson diagonalization with overlap
     ethr =  3.28E-07,  avg # of iterations =  2.3

     total cpu time spent up to now is       45.2 secs

     total energy              =    -148.26714526 Ry
     Harris-Foulkes estimate   =    -148.26714064 Ry
     estimated scf accuracy    <       0.00000589 Ry

     total magnetization       =     3.66 Bohr mag/cell
     absolute magnetization    =     4.05 Bohr mag/cell

     iteration #  7     ecut=    30.00 Ry     beta= 0.70
     Davidson diagonalization with overlap
     ethr =  3.27E-08,  avg # of iterations =  2.3

     total cpu time spent up to now is       51.9 secs

     total energy              =    -148.26714840 Ry
     Harris-Foulkes estimate   =    -148.26714746 Ry
     estimated scf accuracy    <       0.00000323 Ry

     total magnetization       =     3.66 Bohr mag/cell
     absolute magnetization    =     4.04 Bohr mag/cell

     iteration #  8     ecut=    30.00 Ry     beta= 0.70
     Davidson diagonalization with overlap
     ethr =  1.79E-08,  avg # of iterations =  2.3

     total cpu time spent up to now is       58.5 secs

     total energy              =    -148.26714969 Ry
     Harris-Foulkes estimate   =    -148.26714962 Ry
     estimated scf accuracy    <       0.00000018 Ry

     total magnetization       =     3.66 Bohr mag/cell
     absolute magnetization    =     4.04 Bohr mag/cell

     iteration #  9     ecut=    30.00 Ry     beta= 0.70
     Davidson diagonalization with overlap
     ethr =  9.95E-10,  avg # of iterations =  2.5

     total cpu time spent up to now is       66.2 secs

     total energy              =    -148.26714976 Ry
     Harris-Foulkes estimate   =    -148.26714976 Ry
     estimated scf accuracy    <       0.00000002 Ry

     total magnetization       =     3.66 Bohr mag/cell
     absolute magnetization    =     4.04 Bohr mag/cell

     iteration # 10     ecut=    30.00 Ry     beta= 0.70
     Davidson diagonalization with overlap
     ethr =  9.44E-11,  avg # of iterations =  2.1

     Magnetic moment per site:
     atom:    1    charge:    7.9115    magn:    1.9106    constr:    0.0000
     atom:    2    charge:    7.9115    magn:    1.9106    constr:    0.0000

     total cpu time spent up to now is       72.5 secs

     End of self-consistent calculation

     Number of k-points >= 100: set verbosity='high' to print the bands.

     the Fermi energy is     7.9961 ev

!    total energy              =    -148.26714976 Ry
     Harris-Foulkes estimate   =    -148.26714976 Ry
     estimated scf accuracy    <          1.7E-10 Ry

     The total energy is the sum of the following terms:

     one-electron contribution =     -13.76482635 Ry
     hartree contribution      =      27.89492797 Ry
     xc contribution           =     -64.41801188 Ry
     ewald contribution        =     -97.98154770 Ry
     smearing contrib. (-TS)   =       0.00230819 Ry

     total magnetization       =     3.66 Bohr mag/cell
     absolute magnetization    =     4.04 Bohr mag/cell

     convergence has been achieved in  10 iterations

     Forces acting on atoms (cartesian axes, Ry/au):

     atom    1 type  1   force =     0.00000000    0.00000000    0.00000000
     atom    2 type  1   force =     0.00000000    0.00000000    0.00000000

     Total force =     0.000000     Total SCF correction =     0.000000


     Computing stress (Cartesian axis) and pressure

          total   stress  (Ry/bohr**3)                   (kbar)     P= -411.32
  -0.00281385   0.00000000  -0.00000000       -413.93      0.00     -0.00
   0.00000000  -0.00281385  -0.00000000          0.00   -413.93     -0.00
   0.00000000   0.00000000  -0.00276053          0.00      0.00   -406.09


     Writing output data file Co.HCP.save/

     init_run     :      2.66s CPU      2.75s WALL (       1 calls)
     electrons    :     68.10s CPU     69.47s WALL (       1 calls)
     forces       :      1.69s CPU      1.74s WALL (       1 calls)
     stress       :      2.74s CPU      2.84s WALL (       1 calls)

     Called by init_run:
     wfcinit      :      1.56s CPU      1.61s WALL (       1 calls)
     potinit      :      0.07s CPU      0.07s WALL (       1 calls)
     hinit0       :      0.82s CPU      0.83s WALL (       1 calls)

     Called by electrons:
     c_bands      :     55.22s CPU     56.08s WALL (      10 calls)
     sum_band     :     10.41s CPU     10.69s WALL (      10 calls)
     v_of_rho     :      0.36s CPU      0.36s WALL (      11 calls)
     newd         :      2.14s CPU      2.39s WALL (      11 calls)
     mix_rho      :      0.11s CPU      0.12s WALL (      10 calls)

     Called by c_bands:
     init_us_2    :      1.54s CPU      1.57s WALL (    3496 calls)
     cegterg      :     51.97s CPU     52.79s WALL (    1520 calls)

     Called by sum_band:
     sum_band:bec :      0.17s CPU      0.17s WALL (    1520 calls)
     addusdens    :      3.38s CPU      3.57s WALL (      10 calls)

     Called by *egterg:
     h_psi        :     27.52s CPU     28.11s WALL (    5515 calls)
     s_psi        :      6.32s CPU      6.40s WALL (    5515 calls)
     g_psi        :      0.16s CPU      0.17s WALL (    3843 calls)
     cdiaghg      :      4.22s CPU      4.28s WALL (    5363 calls)

     Called by h_psi:
     h_psi:pot    :     27.38s CPU     27.97s WALL (    5515 calls)
     h_psi:calbec :      6.96s CPU      7.12s WALL (    5515 calls)
     vloc_psi     :     14.04s CPU     14.35s WALL (    5515 calls)
     add_vuspsi   :      6.34s CPU      6.46s WALL (    5515 calls)

     General routines
     calbec       :     10.81s CPU     11.03s WALL (    7795 calls)
     fft          :      0.27s CPU      0.28s WALL (     125 calls)
     ffts         :      0.00s CPU      0.00s WALL (      42 calls)
     fftw         :      9.66s CPU      9.87s WALL (  124256 calls)
     interpolate  :      0.05s CPU      0.05s WALL (      22 calls)

     Parallel routines

     PWSCF        :   1m15.58s CPU   1m17.25s WALL


   This run was terminated on:  14:59:25  19Feb2020            

=------------------------------------------------------------------------------=
   JOB DONE.
=------------------------------------------------------------------------------=
