     Message from routine get_command_line:
     unexpected argument # 2     :-input

     Program PWSCF v.6.4.1 starts on 19Feb2020 at 13:41:30 

     This program is part of the open-source Quantum ESPRESSO suite
     for quantum simulation of materials; please cite
         "P. Giannozzi et al., J. Phys.:Condens. Matter 21 395502 (2009);
         "P. Giannozzi et al., J. Phys.:Condens. Matter 29 465901 (2017);
          URL http://www.quantum-espresso.org", 
     in publications or presentations arising from this work. More details at
     http://www.quantum-espresso.org/quote

     Parallel version (MPI), running on     1 processors

     MPI processes distributed on     1 nodes
     Waiting for input...
     Reading input from standard input

     Current dimensions of program PWSCF are:
     Max number of different atomic species (ntypx) = 10
     Max number of k-points (npk) =  40000
     Max angular momentum in pseudopotentials (lmaxx) =  3
               file Co.pz-nd-rrkjus.UPF: wavefunction(s)  4S 3D renormalized

     Subspace diagonalization in iterative solution of the eigenvalue problem:
     a serial algorithm will be used


     G-vector sticks info
     --------------------
     sticks:   dense  smooth     PW     G-vecs:    dense   smooth      PW
     Sum         301     151     55                 6707     2249     525



     bravais-lattice index     =            4
     lattice parameter (alat)  =       4.1400  a.u.
     unit-cell volume          =     100.3497 (a.u.)^3
     number of atoms/cell      =            2
     number of atomic types    =            1
     number of electrons       =        18.00
     number of Kohn-Sham states=           13
     kinetic-energy cutoff     =      30.0000  Ry
     charge density cutoff     =     250.0000  Ry
     convergence threshold     =      1.0E-08
     mixing beta               =       0.7000
     number of iterations used =            8  plain     mixing
     Exchange-correlation      =  SLA  PZ   NOGX NOGC ( 1  1  0  0 0 0)

     celldm(1)=   4.140000  celldm(2)=   0.000000  celldm(3)=   1.632993
     celldm(4)=   0.000000  celldm(5)=   0.000000  celldm(6)=   0.000000

     crystal axes: (cart. coord. in units of alat)
               a(1) = (   1.000000   0.000000   0.000000 )  
               a(2) = (  -0.500000   0.866025   0.000000 )  
               a(3) = (   0.000000   0.000000   1.632993 )  

     reciprocal axes: (cart. coord. in units 2 pi/alat)
               b(1) = (  1.000000  0.577350 -0.000000 )  
               b(2) = (  0.000000  1.154701  0.000000 )  
               b(3) = (  0.000000 -0.000000  0.612372 )  


     PseudoPot. # 1 for Co read from file:
     ./Co.pz-nd-rrkjus.UPF
     MD5 check sum: c80159f6ca3a93d3df3cfc6468bb3c3d
     Pseudo is Ultrasoft + core correction, Zval =  9.0
     Generated by new atomic code, or converted to UPF format
     Using radial grid of  961 points,  6 beta functions with: 
                l(1) =   0
                l(2) =   0
                l(3) =   1
                l(4) =   1
                l(5) =   2
                l(6) =   2
     Q(r) pseudized with 0 coefficients 


     atomic species   valence    mass     pseudopotential
        Co             9.00    58.93300     Co( 1.00)

     Starting magnetic structure 
     atomic species   magnetization
        Co           0.700

     24 Sym. Ops., with inversion, found (12 have fractional translation)



   Cartesian axes

     site n.     atom                  positions (alat units)
         1           Co  tau(   1) = (  -0.0000000   0.5773503   0.4082483  )
         2           Co  tau(   2) = (   0.5000000   0.2886751   1.2247449  )

     number of k points=    76  Marzari-Vanderbilt smearing, width (Ry)=  0.0300
                       cart. coord. in units 2pi/alat
        k(    1) = (   0.0000000   0.0000000   0.0000000), wk =   0.0011574
        k(    2) = (   0.0000000   0.0000000   0.1020621), wk =   0.0023148
        k(    3) = (   0.0000000   0.0000000   0.2041241), wk =   0.0023148
        k(    4) = (   0.0000000   0.0000000  -0.3061862), wk =   0.0011574
        k(    5) = (   0.0000000   0.0962250   0.0000000), wk =   0.0069444
        k(    6) = (   0.0000000   0.0962250   0.1020621), wk =   0.0138889
        k(    7) = (   0.0000000   0.0962250   0.2041241), wk =   0.0138889
        k(    8) = (   0.0000000   0.0962250  -0.3061862), wk =   0.0069444
        k(    9) = (   0.0000000   0.1924501   0.0000000), wk =   0.0069444
        k(   10) = (   0.0000000   0.1924501   0.1020621), wk =   0.0138889
        k(   11) = (   0.0000000   0.1924501   0.2041241), wk =   0.0138889
        k(   12) = (   0.0000000   0.1924501  -0.3061862), wk =   0.0069444
        k(   13) = (   0.0000000   0.2886751   0.0000000), wk =   0.0069444
        k(   14) = (   0.0000000   0.2886751   0.1020621), wk =   0.0138889
        k(   15) = (   0.0000000   0.2886751   0.2041241), wk =   0.0138889
        k(   16) = (   0.0000000   0.2886751  -0.3061862), wk =   0.0069444
        k(   17) = (   0.0000000   0.3849002   0.0000000), wk =   0.0069444
        k(   18) = (   0.0000000   0.3849002   0.1020621), wk =   0.0138889
        k(   19) = (   0.0000000   0.3849002   0.2041241), wk =   0.0138889
        k(   20) = (   0.0000000   0.3849002  -0.3061862), wk =   0.0069444
        k(   21) = (   0.0000000   0.4811252   0.0000000), wk =   0.0069444
        k(   22) = (   0.0000000   0.4811252   0.1020621), wk =   0.0138889
        k(   23) = (   0.0000000   0.4811252   0.2041241), wk =   0.0138889
        k(   24) = (   0.0000000   0.4811252  -0.3061862), wk =   0.0069444
        k(   25) = (   0.0000000  -0.5773503   0.0000000), wk =   0.0034722
        k(   26) = (   0.0000000  -0.5773503   0.1020621), wk =   0.0069444
        k(   27) = (   0.0000000  -0.5773503   0.2041241), wk =   0.0069444
        k(   28) = (   0.0000000  -0.5773503  -0.3061862), wk =   0.0034722
        k(   29) = (   0.0833333   0.1443376   0.0000000), wk =   0.0069444
        k(   30) = (   0.0833333   0.1443376   0.1020621), wk =   0.0138889
        k(   31) = (   0.0833333   0.1443376   0.2041241), wk =   0.0138889
        k(   32) = (   0.0833333   0.1443376  -0.3061862), wk =   0.0069444
        k(   33) = (   0.0833333   0.2405626   0.0000000), wk =   0.0138889
        k(   34) = (   0.0833333   0.2405626   0.1020621), wk =   0.0277778
        k(   35) = (   0.0833333   0.2405626   0.2041241), wk =   0.0277778
        k(   36) = (   0.0833333   0.2405626  -0.3061862), wk =   0.0138889
        k(   37) = (   0.0833333   0.3367877   0.0000000), wk =   0.0138889
        k(   38) = (   0.0833333   0.3367877   0.1020621), wk =   0.0277778
        k(   39) = (   0.0833333   0.3367877   0.2041241), wk =   0.0277778
        k(   40) = (   0.0833333   0.3367877  -0.3061862), wk =   0.0138889
        k(   41) = (   0.0833333   0.4330127   0.0000000), wk =   0.0138889
        k(   42) = (   0.0833333   0.4330127   0.1020621), wk =   0.0277778
        k(   43) = (   0.0833333   0.4330127   0.2041241), wk =   0.0277778
        k(   44) = (   0.0833333   0.4330127  -0.3061862), wk =   0.0138889
        k(   45) = (   0.0833333   0.5292377   0.0000000), wk =   0.0138889
        k(   46) = (   0.0833333   0.5292377   0.1020621), wk =   0.0277778
        k(   47) = (   0.0833333   0.5292377   0.2041241), wk =   0.0277778
        k(   48) = (   0.0833333   0.5292377  -0.3061862), wk =   0.0138889
        k(   49) = (   0.1666667   0.2886751   0.0000000), wk =   0.0069444
        k(   50) = (   0.1666667   0.2886751   0.1020621), wk =   0.0138889
        k(   51) = (   0.1666667   0.2886751   0.2041241), wk =   0.0138889
        k(   52) = (   0.1666667   0.2886751  -0.3061862), wk =   0.0069444
        k(   53) = (   0.1666667   0.3849002   0.0000000), wk =   0.0138889
        k(   54) = (   0.1666667   0.3849002   0.1020621), wk =   0.0277778
        k(   55) = (   0.1666667   0.3849002   0.2041241), wk =   0.0277778
        k(   56) = (   0.1666667   0.3849002  -0.3061862), wk =   0.0138889
        k(   57) = (   0.1666667   0.4811252   0.0000000), wk =   0.0138889
        k(   58) = (   0.1666667   0.4811252   0.1020621), wk =   0.0277778
        k(   59) = (   0.1666667   0.4811252   0.2041241), wk =   0.0277778
        k(   60) = (   0.1666667   0.4811252  -0.3061862), wk =   0.0138889
        k(   61) = (   0.1666667   0.5773503   0.0000000), wk =   0.0069444
        k(   62) = (   0.1666667   0.5773503   0.1020621), wk =   0.0138889
        k(   63) = (   0.1666667   0.5773503   0.2041241), wk =   0.0138889
        k(   64) = (   0.1666667   0.5773503  -0.3061862), wk =   0.0069444
        k(   65) = (   0.2500000   0.4330127   0.0000000), wk =   0.0069444
        k(   66) = (   0.2500000   0.4330127   0.1020621), wk =   0.0138889
        k(   67) = (   0.2500000   0.4330127   0.2041241), wk =   0.0138889
        k(   68) = (   0.2500000   0.4330127  -0.3061862), wk =   0.0069444
        k(   69) = (   0.2500000   0.5292377   0.0000000), wk =   0.0138889
        k(   70) = (   0.2500000   0.5292377   0.1020621), wk =   0.0277778
        k(   71) = (   0.2500000   0.5292377   0.2041241), wk =   0.0277778
        k(   72) = (   0.2500000   0.5292377  -0.3061862), wk =   0.0138889
        k(   73) = (   0.3333333   0.5773503   0.0000000), wk =   0.0023148
        k(   74) = (   0.3333333   0.5773503   0.1020621), wk =   0.0046296
        k(   75) = (   0.3333333   0.5773503   0.2041241), wk =   0.0046296
        k(   76) = (   0.3333333   0.5773503  -0.3061862), wk =   0.0023148

     Dense  grid:     6707 G-vectors     FFT dimensions: (  24,  24,  36)

     Smooth grid:     2249 G-vectors     FFT dimensions: (  15,  15,  24)

     Estimated max dynamical RAM per process >      37.17 MB
     Generating pointlists ...
     new r_m :   0.4125 (alat units)  1.7078 (a.u.) for type    1

     Check: negative core charge=   -0.000005

     Initial potential from superposition of free atoms

     starting charge   17.99923, renormalised to   18.00000
     Starting wfcs are   12 randomized atomic wfcs +    1 random wfcs

     total cpu time spent up to now is        2.0 secs

     Self-consistent Calculation

     iteration #  1     ecut=    30.00 Ry     beta= 0.70
     Davidson diagonalization with overlap
     ethr =  1.00E-02,  avg # of iterations =  3.6

     total cpu time spent up to now is        6.0 secs

     total energy              =    -147.95299407 Ry
     Harris-Foulkes estimate   =    -147.84026989 Ry
     estimated scf accuracy    <       1.01504582 Ry

     total magnetization       =     4.17 Bohr mag/cell
     absolute magnetization    =     4.17 Bohr mag/cell

     iteration #  2     ecut=    30.00 Ry     beta= 0.70
     Davidson diagonalization with overlap
     ethr =  5.64E-03,  avg # of iterations =  2.0

     total cpu time spent up to now is        9.4 secs

     total energy              =    -148.16189556 Ry
     Harris-Foulkes estimate   =    -148.33498668 Ry
     estimated scf accuracy    <       0.49515095 Ry

     total magnetization       =     3.08 Bohr mag/cell
     absolute magnetization    =     3.19 Bohr mag/cell

     iteration #  3     ecut=    30.00 Ry     beta= 0.70
     Davidson diagonalization with overlap
     ethr =  2.75E-03,  avg # of iterations =  2.0

     total cpu time spent up to now is       12.4 secs

     total energy              =    -148.29461733 Ry
     Harris-Foulkes estimate   =    -148.27804834 Ry
     estimated scf accuracy    <       0.05028080 Ry

     total magnetization       =     3.09 Bohr mag/cell
     absolute magnetization    =     3.20 Bohr mag/cell

     iteration #  4     ecut=    30.00 Ry     beta= 0.70
     Davidson diagonalization with overlap
     ethr =  2.79E-04,  avg # of iterations =  1.1

     total cpu time spent up to now is       14.9 secs

     total energy              =    -148.30929827 Ry
     Harris-Foulkes estimate   =    -148.31094736 Ry
     estimated scf accuracy    <       0.00597942 Ry

     total magnetization       =     2.25 Bohr mag/cell
     absolute magnetization    =     2.42 Bohr mag/cell

     iteration #  5     ecut=    30.00 Ry     beta= 0.70
     Davidson diagonalization with overlap
     ethr =  3.32E-05,  avg # of iterations =  1.1

     total cpu time spent up to now is       17.5 secs

     total energy              =    -148.31341721 Ry
     Harris-Foulkes estimate   =    -148.30965802 Ry
     estimated scf accuracy    <       0.00721294 Ry

     total magnetization       =     2.33 Bohr mag/cell
     absolute magnetization    =     2.50 Bohr mag/cell

     iteration #  6     ecut=    30.00 Ry     beta= 0.70
     Davidson diagonalization with overlap
     ethr =  3.32E-05,  avg # of iterations =  1.0

     total cpu time spent up to now is       20.1 secs

     total energy              =    -148.31217979 Ry
     Harris-Foulkes estimate   =    -148.31531582 Ry
     estimated scf accuracy    <       0.00517854 Ry

     total magnetization       =     2.01 Bohr mag/cell
     absolute magnetization    =     2.16 Bohr mag/cell

     iteration #  7     ecut=    30.00 Ry     beta= 0.70
     Davidson diagonalization with overlap
     ethr =  2.88E-05,  avg # of iterations =  2.0

     total cpu time spent up to now is       23.3 secs

     total energy              =    -148.32190602 Ry
     Harris-Foulkes estimate   =    -148.32152840 Ry
     estimated scf accuracy    <       0.00177606 Ry

     total magnetization       =     1.25 Bohr mag/cell
     absolute magnetization    =     1.33 Bohr mag/cell

     iteration #  8     ecut=    30.00 Ry     beta= 0.70
     Davidson diagonalization with overlap
     ethr =  9.87E-06,  avg # of iterations =  1.0

     total cpu time spent up to now is       25.8 secs

     total energy              =    -148.32029750 Ry
     Harris-Foulkes estimate   =    -148.32201984 Ry
     estimated scf accuracy    <       0.00246920 Ry

     total magnetization       =     1.18 Bohr mag/cell
     absolute magnetization    =     1.26 Bohr mag/cell

     iteration #  9     ecut=    30.00 Ry     beta= 0.70
     Davidson diagonalization with overlap
     ethr =  9.87E-06,  avg # of iterations =  1.6

     total cpu time spent up to now is       28.8 secs

     total energy              =    -148.32202818 Ry
     Harris-Foulkes estimate   =    -148.32217483 Ry
     estimated scf accuracy    <       0.00018698 Ry

     total magnetization       =     0.84 Bohr mag/cell
     absolute magnetization    =     0.89 Bohr mag/cell

     iteration # 10     ecut=    30.00 Ry     beta= 0.70
     Davidson diagonalization with overlap
     ethr =  1.04E-06,  avg # of iterations =  1.1

     total cpu time spent up to now is       31.4 secs

     total energy              =    -148.32174825 Ry
     Harris-Foulkes estimate   =    -148.32208006 Ry
     estimated scf accuracy    <       0.00017113 Ry

     total magnetization       =     0.90 Bohr mag/cell
     absolute magnetization    =     0.95 Bohr mag/cell

     iteration # 11     ecut=    30.00 Ry     beta= 0.70
     Davidson diagonalization with overlap
     ethr =  9.51E-07,  avg # of iterations =  1.8

     total cpu time spent up to now is       34.5 secs

     total energy              =    -148.32223879 Ry
     Harris-Foulkes estimate   =    -148.32231685 Ry
     estimated scf accuracy    <       0.00003575 Ry

     total magnetization       =     0.70 Bohr mag/cell
     absolute magnetization    =     0.74 Bohr mag/cell

     iteration # 12     ecut=    30.00 Ry     beta= 0.70
     Davidson diagonalization with overlap
     ethr =  1.99E-07,  avg # of iterations =  2.4

     total cpu time spent up to now is       38.2 secs

     total energy              =    -148.32217274 Ry
     Harris-Foulkes estimate   =    -148.32242408 Ry
     estimated scf accuracy    <       0.00003114 Ry

     total magnetization       =     0.58 Bohr mag/cell
     absolute magnetization    =     0.61 Bohr mag/cell

     iteration # 13     ecut=    30.00 Ry     beta= 0.70
     Davidson diagonalization with overlap
     ethr =  1.73E-07,  avg # of iterations =  2.4

     total cpu time spent up to now is       41.5 secs

     total energy              =    -148.32232812 Ry
     Harris-Foulkes estimate   =    -148.32232793 Ry
     estimated scf accuracy    <       0.00003607 Ry

     total magnetization       =     0.69 Bohr mag/cell
     absolute magnetization    =     0.72 Bohr mag/cell

     iteration # 14     ecut=    30.00 Ry     beta= 0.70
     Davidson diagonalization with overlap
     ethr =  1.73E-07,  avg # of iterations =  2.0

     total cpu time spent up to now is       44.4 secs

     total energy              =    -148.32114659 Ry
     Harris-Foulkes estimate   =    -148.32239065 Ry
     estimated scf accuracy    <       0.00002754 Ry

     total magnetization       =     0.62 Bohr mag/cell
     absolute magnetization    =     0.65 Bohr mag/cell

     iteration # 15     ecut=    30.00 Ry     beta= 0.70
     Davidson diagonalization with overlap
     ethr =  1.53E-07,  avg # of iterations =  3.0

     total cpu time spent up to now is       48.9 secs

     total energy              =    -148.32247636 Ry
     Harris-Foulkes estimate   =    -148.32256799 Ry
     estimated scf accuracy    <       0.00000416 Ry

     total magnetization       =     0.28 Bohr mag/cell
     absolute magnetization    =     0.29 Bohr mag/cell

     iteration # 16     ecut=    30.00 Ry     beta= 0.70
     Davidson diagonalization with overlap
     ethr =  2.31E-08,  avg # of iterations =  3.0

     total cpu time spent up to now is       53.6 secs

     total energy              =    -148.32220145 Ry
     Harris-Foulkes estimate   =    -148.32259413 Ry
     estimated scf accuracy    <       0.00000310 Ry

     total magnetization       =     0.18 Bohr mag/cell
     absolute magnetization    =     0.19 Bohr mag/cell

     iteration # 17     ecut=    30.00 Ry     beta= 0.70
     Davidson diagonalization with overlap
     ethr =  1.72E-08,  avg # of iterations =  3.1

     total cpu time spent up to now is       58.8 secs

     total energy              =    -148.32258599 Ry
     Harris-Foulkes estimate   =    -148.32261107 Ry
     estimated scf accuracy    <       0.00000690 Ry

     total magnetization       =    -0.00 Bohr mag/cell
     absolute magnetization    =     0.00 Bohr mag/cell

     iteration # 18     ecut=    30.00 Ry     beta= 0.70
     Davidson diagonalization with overlap
     ethr =  1.72E-08,  avg # of iterations =  2.5

     total cpu time spent up to now is       62.6 secs

     total energy              =    -148.32260664 Ry
     Harris-Foulkes estimate   =    -148.32261101 Ry
     estimated scf accuracy    <       0.00000054 Ry

     total magnetization       =     0.04 Bohr mag/cell
     absolute magnetization    =     0.04 Bohr mag/cell

     iteration # 19     ecut=    30.00 Ry     beta= 0.70
     Davidson diagonalization with overlap
     ethr =  2.98E-09,  avg # of iterations =  2.4

     total cpu time spent up to now is       66.5 secs

     total energy              =    -148.32260413 Ry
     Harris-Foulkes estimate   =    -148.32261010 Ry
     estimated scf accuracy    <       0.00000035 Ry

     total magnetization       =     0.06 Bohr mag/cell
     absolute magnetization    =     0.06 Bohr mag/cell

     iteration # 20     ecut=    30.00 Ry     beta= 0.70
     Davidson diagonalization with overlap
     ethr =  1.95E-09,  avg # of iterations =  3.0

     total cpu time spent up to now is       70.9 secs

     total energy              =    -148.32261081 Ry
     Harris-Foulkes estimate   =    -148.32261122 Ry
     estimated scf accuracy    <       0.00000013 Ry

     total magnetization       =     0.03 Bohr mag/cell
     absolute magnetization    =     0.04 Bohr mag/cell

     iteration # 21     ecut=    30.00 Ry     beta= 0.70
     Davidson diagonalization with overlap
     ethr =  7.38E-10,  avg # of iterations =  2.2

     total cpu time spent up to now is       74.3 secs

     total energy              =    -148.32261077 Ry
     Harris-Foulkes estimate   =    -148.32261144 Ry
     estimated scf accuracy    <       0.00000008 Ry

     total magnetization       =     0.03 Bohr mag/cell
     absolute magnetization    =     0.03 Bohr mag/cell

     iteration # 22     ecut=    30.00 Ry     beta= 0.70
     Davidson diagonalization with overlap
     ethr =  4.29E-10,  avg # of iterations =  2.9

     total cpu time spent up to now is       78.4 secs

     total energy              =    -148.32260860 Ry
     Harris-Foulkes estimate   =    -148.32261163 Ry
     estimated scf accuracy    <       0.00000004 Ry

     total magnetization       =     0.02 Bohr mag/cell
     absolute magnetization    =     0.02 Bohr mag/cell

     iteration # 23     ecut=    30.00 Ry     beta= 0.70
     Davidson diagonalization with overlap
     ethr =  2.19E-10,  avg # of iterations =  3.0

     Magnetic moment per site:
     atom:    1    charge:    7.4176    magn:    0.0013    constr:    0.0000
     atom:    2    charge:    7.4176    magn:    0.0013    constr:    0.0000

     total cpu time spent up to now is       83.2 secs

     End of self-consistent calculation

     Number of k-points >= 100: set verbosity='high' to print the bands.

     the Fermi energy is    22.3342 ev

!    total energy              =    -148.32261181 Ry
     Harris-Foulkes estimate   =    -148.32261179 Ry
     estimated scf accuracy    <          4.5E-10 Ry

     The total energy is the sum of the following terms:

     one-electron contribution =      28.26885028 Ry
     hartree contribution      =      15.78126356 Ry
     xc contribution           =     -65.51355354 Ry
     ewald contribution        =    -126.85533712 Ry
     smearing contrib. (-TS)   =      -0.00383500 Ry

     total magnetization       =     0.00 Bohr mag/cell
     absolute magnetization    =     0.00 Bohr mag/cell

     convergence has been achieved in  23 iterations

     Forces acting on atoms (cartesian axes, Ry/au):

     atom    1 type  1   force =     0.00000000    0.00000000    0.00000000
     atom    2 type  1   force =     0.00000000    0.00000000    0.00000000

     Total force =     0.000000     Total SCF correction =     0.000000


     Computing stress (Cartesian axis) and pressure

          total   stress  (Ry/bohr**3)                   (kbar)     P= 1408.39
   0.00976713  -0.00000000   0.00000000       1436.79     -0.00      0.00
  -0.00000000   0.00976713  -0.00000000         -0.00   1436.79     -0.00
   0.00000000   0.00000000   0.00918785          0.00      0.00   1351.58


     Writing output data file Co.HCP.save/

     init_run     :      1.60s CPU      1.76s WALL (       1 calls)
     electrons    :     78.90s CPU     81.23s WALL (       1 calls)
     forces       :      0.85s CPU      0.85s WALL (       1 calls)
     stress       :      1.45s CPU      1.45s WALL (       1 calls)

     Called by init_run:
     wfcinit      :      0.77s CPU      0.85s WALL (       1 calls)
     potinit      :      0.05s CPU      0.05s WALL (       1 calls)
     hinit0       :      0.68s CPU      0.73s WALL (       1 calls)

     Called by electrons:
     c_bands      :     65.09s CPU     67.11s WALL (      23 calls)
     sum_band     :     11.10s CPU     11.37s WALL (      23 calls)
     v_of_rho     :      0.46s CPU      0.46s WALL (      24 calls)
     newd         :      2.14s CPU      2.19s WALL (      24 calls)
     mix_rho      :      0.14s CPU      0.14s WALL (      23 calls)

     Called by c_bands:
     init_us_2    :      1.47s CPU      1.51s WALL (    7448 calls)
     cegterg      :     61.65s CPU     63.57s WALL (    3496 calls)

     Called by sum_band:
     sum_band:bec :      0.35s CPU      0.36s WALL (    3496 calls)
     addusdens    :      3.52s CPU      3.56s WALL (      23 calls)

     Called by *egterg:
     h_psi        :     29.92s CPU     30.98s WALL (   11278 calls)
     s_psi        :      6.67s CPU      6.92s WALL (   11278 calls)
     g_psi        :      0.18s CPU      0.19s WALL (    7630 calls)
     cdiaghg      :      8.75s CPU      8.99s WALL (   11126 calls)

     Called by h_psi:
     h_psi:pot    :     29.76s CPU     30.81s WALL (   11278 calls)
     h_psi:calbec :      7.29s CPU      7.58s WALL (   11278 calls)
     vloc_psi     :     15.77s CPU     16.25s WALL (   11278 calls)
     add_vuspsi   :      6.63s CPU      6.90s WALL (   11278 calls)

     General routines
     calbec       :     10.58s CPU     10.98s WALL (   15534 calls)
     fft          :      0.29s CPU      0.30s WALL (     268 calls)
     ffts         :      0.02s CPU      0.02s WALL (      94 calls)
     fftw         :     11.66s CPU     12.03s WALL (  288528 calls)
     interpolate  :      0.07s CPU      0.08s WALL (      48 calls)

     Parallel routines

     PWSCF        :   1m23.15s CPU   1m25.68s WALL


   This run was terminated on:  13:42:55  19Feb2020            

=------------------------------------------------------------------------------=
   JOB DONE.
=------------------------------------------------------------------------------=
