     Message from routine get_command_line:
     unexpected argument # 2     :-input

     Program PWSCF v.6.4.1 starts on 19Feb2020 at 14:23:37 

     This program is part of the open-source Quantum ESPRESSO suite
     for quantum simulation of materials; please cite
         "P. Giannozzi et al., J. Phys.:Condens. Matter 21 395502 (2009);
         "P. Giannozzi et al., J. Phys.:Condens. Matter 29 465901 (2017);
          URL http://www.quantum-espresso.org", 
     in publications or presentations arising from this work. More details at
     http://www.quantum-espresso.org/quote

     Parallel version (MPI), running on     1 processors

     MPI processes distributed on     1 nodes
     Waiting for input...
     Reading input from standard input

     Current dimensions of program PWSCF are:
     Max number of different atomic species (ntypx) = 10
     Max number of k-points (npk) =  40000
     Max angular momentum in pseudopotentials (lmaxx) =  3
               file Co.pz-nd-rrkjus.UPF: wavefunction(s)  4S 3D renormalized

     Subspace diagonalization in iterative solution of the eigenvalue problem:
     a serial algorithm will be used


     G-vector sticks info
     --------------------
     sticks:   dense  smooth     PW     G-vecs:    dense   smooth      PW
     Sum         421     199     61                10851     3657     701



     bravais-lattice index     =            4
     lattice parameter (alat)  =       4.8600  a.u.
     unit-cell volume          =     162.3394 (a.u.)^3
     number of atoms/cell      =            2
     number of atomic types    =            1
     number of electrons       =        18.00
     number of Kohn-Sham states=           13
     kinetic-energy cutoff     =      30.0000  Ry
     charge density cutoff     =     250.0000  Ry
     convergence threshold     =      1.0E-08
     mixing beta               =       0.7000
     number of iterations used =            8  plain     mixing
     Exchange-correlation      =  SLA  PZ   NOGX NOGC ( 1  1  0  0 0 0)

     celldm(1)=   4.860000  celldm(2)=   0.000000  celldm(3)=   1.632993
     celldm(4)=   0.000000  celldm(5)=   0.000000  celldm(6)=   0.000000

     crystal axes: (cart. coord. in units of alat)
               a(1) = (   1.000000   0.000000   0.000000 )  
               a(2) = (  -0.500000   0.866025   0.000000 )  
               a(3) = (   0.000000   0.000000   1.632993 )  

     reciprocal axes: (cart. coord. in units 2 pi/alat)
               b(1) = (  1.000000  0.577350 -0.000000 )  
               b(2) = (  0.000000  1.154701  0.000000 )  
               b(3) = (  0.000000 -0.000000  0.612372 )  


     PseudoPot. # 1 for Co read from file:
     ./Co.pz-nd-rrkjus.UPF
     MD5 check sum: c80159f6ca3a93d3df3cfc6468bb3c3d
     Pseudo is Ultrasoft + core correction, Zval =  9.0
     Generated by new atomic code, or converted to UPF format
     Using radial grid of  961 points,  6 beta functions with: 
                l(1) =   0
                l(2) =   0
                l(3) =   1
                l(4) =   1
                l(5) =   2
                l(6) =   2
     Q(r) pseudized with 0 coefficients 


     atomic species   valence    mass     pseudopotential
        Co             9.00    58.93300     Co( 1.00)

     Starting magnetic structure 
     atomic species   magnetization
        Co           0.700

     24 Sym. Ops., with inversion, found (12 have fractional translation)



   Cartesian axes

     site n.     atom                  positions (alat units)
         1           Co  tau(   1) = (  -0.0000000   0.5773503   0.4082483  )
         2           Co  tau(   2) = (   0.5000000   0.2886751   1.2247449  )

     number of k points=    76  Marzari-Vanderbilt smearing, width (Ry)=  0.0300
                       cart. coord. in units 2pi/alat
        k(    1) = (   0.0000000   0.0000000   0.0000000), wk =   0.0011574
        k(    2) = (   0.0000000   0.0000000   0.1020621), wk =   0.0023148
        k(    3) = (   0.0000000   0.0000000   0.2041241), wk =   0.0023148
        k(    4) = (   0.0000000   0.0000000  -0.3061862), wk =   0.0011574
        k(    5) = (   0.0000000   0.0962250   0.0000000), wk =   0.0069444
        k(    6) = (   0.0000000   0.0962250   0.1020621), wk =   0.0138889
        k(    7) = (   0.0000000   0.0962250   0.2041241), wk =   0.0138889
        k(    8) = (   0.0000000   0.0962250  -0.3061862), wk =   0.0069444
        k(    9) = (   0.0000000   0.1924501   0.0000000), wk =   0.0069444
        k(   10) = (   0.0000000   0.1924501   0.1020621), wk =   0.0138889
        k(   11) = (   0.0000000   0.1924501   0.2041241), wk =   0.0138889
        k(   12) = (   0.0000000   0.1924501  -0.3061862), wk =   0.0069444
        k(   13) = (   0.0000000   0.2886751   0.0000000), wk =   0.0069444
        k(   14) = (   0.0000000   0.2886751   0.1020621), wk =   0.0138889
        k(   15) = (   0.0000000   0.2886751   0.2041241), wk =   0.0138889
        k(   16) = (   0.0000000   0.2886751  -0.3061862), wk =   0.0069444
        k(   17) = (   0.0000000   0.3849002   0.0000000), wk =   0.0069444
        k(   18) = (   0.0000000   0.3849002   0.1020621), wk =   0.0138889
        k(   19) = (   0.0000000   0.3849002   0.2041241), wk =   0.0138889
        k(   20) = (   0.0000000   0.3849002  -0.3061862), wk =   0.0069444
        k(   21) = (   0.0000000   0.4811252   0.0000000), wk =   0.0069444
        k(   22) = (   0.0000000   0.4811252   0.1020621), wk =   0.0138889
        k(   23) = (   0.0000000   0.4811252   0.2041241), wk =   0.0138889
        k(   24) = (   0.0000000   0.4811252  -0.3061862), wk =   0.0069444
        k(   25) = (   0.0000000  -0.5773503   0.0000000), wk =   0.0034722
        k(   26) = (   0.0000000  -0.5773503   0.1020621), wk =   0.0069444
        k(   27) = (   0.0000000  -0.5773503   0.2041241), wk =   0.0069444
        k(   28) = (   0.0000000  -0.5773503  -0.3061862), wk =   0.0034722
        k(   29) = (   0.0833333   0.1443376   0.0000000), wk =   0.0069444
        k(   30) = (   0.0833333   0.1443376   0.1020621), wk =   0.0138889
        k(   31) = (   0.0833333   0.1443376   0.2041241), wk =   0.0138889
        k(   32) = (   0.0833333   0.1443376  -0.3061862), wk =   0.0069444
        k(   33) = (   0.0833333   0.2405626   0.0000000), wk =   0.0138889
        k(   34) = (   0.0833333   0.2405626   0.1020621), wk =   0.0277778
        k(   35) = (   0.0833333   0.2405626   0.2041241), wk =   0.0277778
        k(   36) = (   0.0833333   0.2405626  -0.3061862), wk =   0.0138889
        k(   37) = (   0.0833333   0.3367877   0.0000000), wk =   0.0138889
        k(   38) = (   0.0833333   0.3367877   0.1020621), wk =   0.0277778
        k(   39) = (   0.0833333   0.3367877   0.2041241), wk =   0.0277778
        k(   40) = (   0.0833333   0.3367877  -0.3061862), wk =   0.0138889
        k(   41) = (   0.0833333   0.4330127   0.0000000), wk =   0.0138889
        k(   42) = (   0.0833333   0.4330127   0.1020621), wk =   0.0277778
        k(   43) = (   0.0833333   0.4330127   0.2041241), wk =   0.0277778
        k(   44) = (   0.0833333   0.4330127  -0.3061862), wk =   0.0138889
        k(   45) = (   0.0833333   0.5292377   0.0000000), wk =   0.0138889
        k(   46) = (   0.0833333   0.5292377   0.1020621), wk =   0.0277778
        k(   47) = (   0.0833333   0.5292377   0.2041241), wk =   0.0277778
        k(   48) = (   0.0833333   0.5292377  -0.3061862), wk =   0.0138889
        k(   49) = (   0.1666667   0.2886751   0.0000000), wk =   0.0069444
        k(   50) = (   0.1666667   0.2886751   0.1020621), wk =   0.0138889
        k(   51) = (   0.1666667   0.2886751   0.2041241), wk =   0.0138889
        k(   52) = (   0.1666667   0.2886751  -0.3061862), wk =   0.0069444
        k(   53) = (   0.1666667   0.3849002   0.0000000), wk =   0.0138889
        k(   54) = (   0.1666667   0.3849002   0.1020621), wk =   0.0277778
        k(   55) = (   0.1666667   0.3849002   0.2041241), wk =   0.0277778
        k(   56) = (   0.1666667   0.3849002  -0.3061862), wk =   0.0138889
        k(   57) = (   0.1666667   0.4811252   0.0000000), wk =   0.0138889
        k(   58) = (   0.1666667   0.4811252   0.1020621), wk =   0.0277778
        k(   59) = (   0.1666667   0.4811252   0.2041241), wk =   0.0277778
        k(   60) = (   0.1666667   0.4811252  -0.3061862), wk =   0.0138889
        k(   61) = (   0.1666667   0.5773503   0.0000000), wk =   0.0069444
        k(   62) = (   0.1666667   0.5773503   0.1020621), wk =   0.0138889
        k(   63) = (   0.1666667   0.5773503   0.2041241), wk =   0.0138889
        k(   64) = (   0.1666667   0.5773503  -0.3061862), wk =   0.0069444
        k(   65) = (   0.2500000   0.4330127   0.0000000), wk =   0.0069444
        k(   66) = (   0.2500000   0.4330127   0.1020621), wk =   0.0138889
        k(   67) = (   0.2500000   0.4330127   0.2041241), wk =   0.0138889
        k(   68) = (   0.2500000   0.4330127  -0.3061862), wk =   0.0069444
        k(   69) = (   0.2500000   0.5292377   0.0000000), wk =   0.0138889
        k(   70) = (   0.2500000   0.5292377   0.1020621), wk =   0.0277778
        k(   71) = (   0.2500000   0.5292377   0.2041241), wk =   0.0277778
        k(   72) = (   0.2500000   0.5292377  -0.3061862), wk =   0.0138889
        k(   73) = (   0.3333333   0.5773503   0.0000000), wk =   0.0023148
        k(   74) = (   0.3333333   0.5773503   0.1020621), wk =   0.0046296
        k(   75) = (   0.3333333   0.5773503   0.2041241), wk =   0.0046296
        k(   76) = (   0.3333333   0.5773503  -0.3061862), wk =   0.0023148

     Dense  grid:    10851 G-vectors     FFT dimensions: (  25,  25,  40)

     Smooth grid:     3657 G-vectors     FFT dimensions: (  18,  18,  30)

     Estimated max dynamical RAM per process >      58.85 MB
     Generating pointlists ...
     new r_m :   0.4125 (alat units)  2.0048 (a.u.) for type    1

     Check: negative core charge=   -0.000041

     Initial potential from superposition of free atoms

     starting charge   17.99923, renormalised to   18.00000
     Starting wfcs are   12 randomized atomic wfcs +    1 random wfcs

     total cpu time spent up to now is        3.8 secs

     Self-consistent Calculation

     iteration #  1     ecut=    30.00 Ry     beta= 0.70
     Davidson diagonalization with overlap
     ethr =  1.00E-02,  avg # of iterations =  3.3

     total cpu time spent up to now is       13.3 secs

     total energy              =    -147.78994505 Ry
     Harris-Foulkes estimate   =    -148.17751456 Ry
     estimated scf accuracy    <       1.25904417 Ry

     total magnetization       =     5.32 Bohr mag/cell
     absolute magnetization    =     5.33 Bohr mag/cell

     iteration #  2     ecut=    30.00 Ry     beta= 0.70
     Davidson diagonalization with overlap
     ethr =  6.99E-03,  avg # of iterations =  2.7

     total cpu time spent up to now is       22.8 secs

     total energy              =    -148.01348346 Ry
     Harris-Foulkes estimate   =    -148.81667410 Ry
     estimated scf accuracy    <       2.09439554 Ry

     total magnetization       =     3.21 Bohr mag/cell
     absolute magnetization    =     3.36 Bohr mag/cell

     iteration #  3     ecut=    30.00 Ry     beta= 0.70
     Davidson diagonalization with overlap
     ethr =  6.99E-03,  avg # of iterations =  2.0

     total cpu time spent up to now is       30.9 secs

     total energy              =    -148.40160096 Ry
     Harris-Foulkes estimate   =    -148.36702761 Ry
     estimated scf accuracy    <       0.03908778 Ry

     total magnetization       =     3.80 Bohr mag/cell
     absolute magnetization    =     4.04 Bohr mag/cell

     iteration #  4     ecut=    30.00 Ry     beta= 0.70
     Davidson diagonalization with overlap
     ethr =  2.17E-04,  avg # of iterations =  2.0

     total cpu time spent up to now is       38.4 secs

     total energy              =    -148.41338446 Ry
     Harris-Foulkes estimate   =    -148.41325610 Ry
     estimated scf accuracy    <       0.00013090 Ry

     total magnetization       =     3.46 Bohr mag/cell
     absolute magnetization    =     3.76 Bohr mag/cell

     iteration #  5     ecut=    30.00 Ry     beta= 0.70
     Davidson diagonalization with overlap
     ethr =  7.27E-07,  avg # of iterations =  3.9

     total cpu time spent up to now is       50.4 secs

     total energy              =    -148.41363029 Ry
     Harris-Foulkes estimate   =    -148.41361995 Ry
     estimated scf accuracy    <       0.00001750 Ry

     total magnetization       =     3.46 Bohr mag/cell
     absolute magnetization    =     3.75 Bohr mag/cell

     iteration #  6     ecut=    30.00 Ry     beta= 0.70
     Davidson diagonalization with overlap
     ethr =  9.72E-08,  avg # of iterations =  2.0

     total cpu time spent up to now is       58.2 secs

     total energy              =    -148.41363786 Ry
     Harris-Foulkes estimate   =    -148.41363757 Ry
     estimated scf accuracy    <       0.00000278 Ry

     total magnetization       =     3.46 Bohr mag/cell
     absolute magnetization    =     3.75 Bohr mag/cell

     iteration #  7     ecut=    30.00 Ry     beta= 0.70
     Davidson diagonalization with overlap
     ethr =  1.55E-08,  avg # of iterations =  1.6

     total cpu time spent up to now is       65.9 secs

     total energy              =    -148.41363857 Ry
     Harris-Foulkes estimate   =    -148.41363846 Ry
     estimated scf accuracy    <       0.00000005 Ry

     total magnetization       =     3.46 Bohr mag/cell
     absolute magnetization    =     3.74 Bohr mag/cell

     iteration #  8     ecut=    30.00 Ry     beta= 0.70
     Davidson diagonalization with overlap
     ethr =  2.75E-10,  avg # of iterations =  3.0

     Magnetic moment per site:
     atom:    1    charge:    7.7290    magn:    1.7961    constr:    0.0000
     atom:    2    charge:    7.7290    magn:    1.7961    constr:    0.0000

     total cpu time spent up to now is       76.0 secs

     End of self-consistent calculation

     Number of k-points >= 100: set verbosity='high' to print the bands.

     the Fermi energy is    12.0474 ev

!    total energy              =    -148.41363862 Ry
     Harris-Foulkes estimate   =    -148.41363862 Ry
     estimated scf accuracy    <          2.6E-09 Ry

     The total energy is the sum of the following terms:

     one-electron contribution =       1.36345517 Ry
     hartree contribution      =      22.97197034 Ry
     xc contribution           =     -64.69403033 Ry
     ewald contribution        =    -108.06195384 Ry
     smearing contrib. (-TS)   =       0.00692004 Ry

     total magnetization       =     3.46 Bohr mag/cell
     absolute magnetization    =     3.74 Bohr mag/cell

     convergence has been achieved in   8 iterations

     Forces acting on atoms (cartesian axes, Ry/au):

     atom    1 type  1   force =     0.00000000    0.00000000    0.00000000
     atom    2 type  1   force =     0.00000000   -0.00000000    0.00000000

     Total force =     0.000000     Total SCF correction =     0.000000


     Computing stress (Cartesian axis) and pressure

          total   stress  (Ry/bohr**3)                   (kbar)     P= -313.99
  -0.00211670   0.00000000   0.00000000       -311.38      0.00      0.00
   0.00000000  -0.00211670   0.00000000          0.00   -311.38      0.00
   0.00000000   0.00000000  -0.00217005          0.00      0.00   -319.22


     Writing output data file Co.HCP.save/

     init_run     :      3.42s CPU      3.52s WALL (       1 calls)
     electrons    :     71.22s CPU     72.18s WALL (       1 calls)
     forces       :      1.28s CPU      1.31s WALL (       1 calls)
     stress       :      2.01s CPU      2.07s WALL (       1 calls)

     Called by init_run:
     wfcinit      :      2.43s CPU      2.49s WALL (       1 calls)
     potinit      :      0.08s CPU      0.08s WALL (       1 calls)
     hinit0       :      0.76s CPU      0.78s WALL (       1 calls)

     Called by electrons:
     c_bands      :     59.10s CPU     59.93s WALL (       8 calls)
     sum_band     :     10.81s CPU     10.93s WALL (       8 calls)
     v_of_rho     :      0.19s CPU      0.19s WALL (       9 calls)
     newd         :      1.19s CPU      1.22s WALL (       9 calls)
     mix_rho      :      0.04s CPU      0.05s WALL (       8 calls)

     Called by c_bands:
     init_us_2    :      0.95s CPU      0.97s WALL (    2888 calls)
     cegterg      :     57.30s CPU     58.10s WALL (    1216 calls)

     Called by sum_band:
     sum_band:bec :      0.12s CPU      0.12s WALL (    1216 calls)
     addusdens    :      1.86s CPU      1.89s WALL (       8 calls)

     Called by *egterg:
     h_psi        :     42.71s CPU     43.32s WALL (    4463 calls)
     s_psi        :      3.79s CPU      3.86s WALL (    4463 calls)
     g_psi        :      0.10s CPU      0.10s WALL (    3095 calls)
     cdiaghg      :      3.54s CPU      3.59s WALL (    4311 calls)

     Called by h_psi:
     h_psi:pot    :     42.62s CPU     43.22s WALL (    4463 calls)
     h_psi:calbec :      4.20s CPU      4.25s WALL (    4463 calls)
     vloc_psi     :     34.57s CPU     35.07s WALL (    4463 calls)
     add_vuspsi   :      3.81s CPU      3.87s WALL (    4463 calls)

     General routines
     calbec       :      6.58s CPU      6.66s WALL (    6439 calls)
     fft          :      0.09s CPU      0.09s WALL (     103 calls)
     ffts         :      0.04s CPU      0.05s WALL (      34 calls)
     fftw         :     36.72s CPU     37.26s WALL (  104982 calls)
     interpolate  :      0.05s CPU      0.05s WALL (      18 calls)

     Parallel routines

     PWSCF        :   1m18.29s CPU   1m19.50s WALL


   This run was terminated on:  14:24:56  19Feb2020            

=------------------------------------------------------------------------------=
   JOB DONE.
=------------------------------------------------------------------------------=
