     Message from routine get_command_line:
     unexpected argument # 2     :-input

     Program PWSCF v.6.4.1 starts on 19Feb2020 at 13:17: 6 

     This program is part of the open-source Quantum ESPRESSO suite
     for quantum simulation of materials; please cite
         "P. Giannozzi et al., J. Phys.:Condens. Matter 21 395502 (2009);
         "P. Giannozzi et al., J. Phys.:Condens. Matter 29 465901 (2017);
          URL http://www.quantum-espresso.org", 
     in publications or presentations arising from this work. More details at
     http://www.quantum-espresso.org/quote

     Parallel version (MPI), running on     1 processors

     MPI processes distributed on     1 nodes
     Waiting for input...
     Reading input from standard input

     Current dimensions of program PWSCF are:
     Max number of different atomic species (ntypx) = 10
     Max number of k-points (npk) =  40000
     Max angular momentum in pseudopotentials (lmaxx) =  3
               file Co.pz-nd-rrkjus.UPF: wavefunction(s)  4S 3D renormalized

     Subspace diagonalization in iterative solution of the eigenvalue problem:
     a serial algorithm will be used


     G-vector sticks info
     --------------------
     sticks:   dense  smooth     PW     G-vecs:    dense   smooth      PW
     Sum         199      91     37                 3633     1165     299



     bravais-lattice index     =            4
     lattice parameter (alat)  =       3.3600  a.u.
     unit-cell volume          =      53.6454 (a.u.)^3
     number of atoms/cell      =            2
     number of atomic types    =            1
     number of electrons       =        18.00
     number of Kohn-Sham states=           13
     kinetic-energy cutoff     =      30.0000  Ry
     charge density cutoff     =     250.0000  Ry
     convergence threshold     =      1.0E-08
     mixing beta               =       0.7000
     number of iterations used =            8  plain     mixing
     Exchange-correlation      =  SLA  PZ   NOGX NOGC ( 1  1  0  0 0 0)

     celldm(1)=   3.360000  celldm(2)=   0.000000  celldm(3)=   1.632993
     celldm(4)=   0.000000  celldm(5)=   0.000000  celldm(6)=   0.000000

     crystal axes: (cart. coord. in units of alat)
               a(1) = (   1.000000   0.000000   0.000000 )  
               a(2) = (  -0.500000   0.866025   0.000000 )  
               a(3) = (   0.000000   0.000000   1.632993 )  

     reciprocal axes: (cart. coord. in units 2 pi/alat)
               b(1) = (  1.000000  0.577350 -0.000000 )  
               b(2) = (  0.000000  1.154701  0.000000 )  
               b(3) = (  0.000000 -0.000000  0.612372 )  


     PseudoPot. # 1 for Co read from file:
     ./Co.pz-nd-rrkjus.UPF
     MD5 check sum: c80159f6ca3a93d3df3cfc6468bb3c3d
     Pseudo is Ultrasoft + core correction, Zval =  9.0
     Generated by new atomic code, or converted to UPF format
     Using radial grid of  961 points,  6 beta functions with: 
                l(1) =   0
                l(2) =   0
                l(3) =   1
                l(4) =   1
                l(5) =   2
                l(6) =   2
     Q(r) pseudized with 0 coefficients 


     atomic species   valence    mass     pseudopotential
        Co             9.00    58.93300     Co( 1.00)

     Starting magnetic structure 
     atomic species   magnetization
        Co           0.700

     24 Sym. Ops., with inversion, found (12 have fractional translation)



   Cartesian axes

     site n.     atom                  positions (alat units)
         1           Co  tau(   1) = (  -0.0000000   0.5773503   0.4082483  )
         2           Co  tau(   2) = (   0.5000000   0.2886751   1.2247449  )

     number of k points=    76  Marzari-Vanderbilt smearing, width (Ry)=  0.0300
                       cart. coord. in units 2pi/alat
        k(    1) = (   0.0000000   0.0000000   0.0000000), wk =   0.0011574
        k(    2) = (   0.0000000   0.0000000   0.1020621), wk =   0.0023148
        k(    3) = (   0.0000000   0.0000000   0.2041241), wk =   0.0023148
        k(    4) = (   0.0000000   0.0000000  -0.3061862), wk =   0.0011574
        k(    5) = (   0.0000000   0.0962250   0.0000000), wk =   0.0069444
        k(    6) = (   0.0000000   0.0962250   0.1020621), wk =   0.0138889
        k(    7) = (   0.0000000   0.0962250   0.2041241), wk =   0.0138889
        k(    8) = (   0.0000000   0.0962250  -0.3061862), wk =   0.0069444
        k(    9) = (   0.0000000   0.1924501   0.0000000), wk =   0.0069444
        k(   10) = (   0.0000000   0.1924501   0.1020621), wk =   0.0138889
        k(   11) = (   0.0000000   0.1924501   0.2041241), wk =   0.0138889
        k(   12) = (   0.0000000   0.1924501  -0.3061862), wk =   0.0069444
        k(   13) = (   0.0000000   0.2886751   0.0000000), wk =   0.0069444
        k(   14) = (   0.0000000   0.2886751   0.1020621), wk =   0.0138889
        k(   15) = (   0.0000000   0.2886751   0.2041241), wk =   0.0138889
        k(   16) = (   0.0000000   0.2886751  -0.3061862), wk =   0.0069444
        k(   17) = (   0.0000000   0.3849002   0.0000000), wk =   0.0069444
        k(   18) = (   0.0000000   0.3849002   0.1020621), wk =   0.0138889
        k(   19) = (   0.0000000   0.3849002   0.2041241), wk =   0.0138889
        k(   20) = (   0.0000000   0.3849002  -0.3061862), wk =   0.0069444
        k(   21) = (   0.0000000   0.4811252   0.0000000), wk =   0.0069444
        k(   22) = (   0.0000000   0.4811252   0.1020621), wk =   0.0138889
        k(   23) = (   0.0000000   0.4811252   0.2041241), wk =   0.0138889
        k(   24) = (   0.0000000   0.4811252  -0.3061862), wk =   0.0069444
        k(   25) = (   0.0000000  -0.5773503   0.0000000), wk =   0.0034722
        k(   26) = (   0.0000000  -0.5773503   0.1020621), wk =   0.0069444
        k(   27) = (   0.0000000  -0.5773503   0.2041241), wk =   0.0069444
        k(   28) = (   0.0000000  -0.5773503  -0.3061862), wk =   0.0034722
        k(   29) = (   0.0833333   0.1443376   0.0000000), wk =   0.0069444
        k(   30) = (   0.0833333   0.1443376   0.1020621), wk =   0.0138889
        k(   31) = (   0.0833333   0.1443376   0.2041241), wk =   0.0138889
        k(   32) = (   0.0833333   0.1443376  -0.3061862), wk =   0.0069444
        k(   33) = (   0.0833333   0.2405626   0.0000000), wk =   0.0138889
        k(   34) = (   0.0833333   0.2405626   0.1020621), wk =   0.0277778
        k(   35) = (   0.0833333   0.2405626   0.2041241), wk =   0.0277778
        k(   36) = (   0.0833333   0.2405626  -0.3061862), wk =   0.0138889
        k(   37) = (   0.0833333   0.3367877   0.0000000), wk =   0.0138889
        k(   38) = (   0.0833333   0.3367877   0.1020621), wk =   0.0277778
        k(   39) = (   0.0833333   0.3367877   0.2041241), wk =   0.0277778
        k(   40) = (   0.0833333   0.3367877  -0.3061862), wk =   0.0138889
        k(   41) = (   0.0833333   0.4330127   0.0000000), wk =   0.0138889
        k(   42) = (   0.0833333   0.4330127   0.1020621), wk =   0.0277778
        k(   43) = (   0.0833333   0.4330127   0.2041241), wk =   0.0277778
        k(   44) = (   0.0833333   0.4330127  -0.3061862), wk =   0.0138889
        k(   45) = (   0.0833333   0.5292377   0.0000000), wk =   0.0138889
        k(   46) = (   0.0833333   0.5292377   0.1020621), wk =   0.0277778
        k(   47) = (   0.0833333   0.5292377   0.2041241), wk =   0.0277778
        k(   48) = (   0.0833333   0.5292377  -0.3061862), wk =   0.0138889
        k(   49) = (   0.1666667   0.2886751   0.0000000), wk =   0.0069444
        k(   50) = (   0.1666667   0.2886751   0.1020621), wk =   0.0138889
        k(   51) = (   0.1666667   0.2886751   0.2041241), wk =   0.0138889
        k(   52) = (   0.1666667   0.2886751  -0.3061862), wk =   0.0069444
        k(   53) = (   0.1666667   0.3849002   0.0000000), wk =   0.0138889
        k(   54) = (   0.1666667   0.3849002   0.1020621), wk =   0.0277778
        k(   55) = (   0.1666667   0.3849002   0.2041241), wk =   0.0277778
        k(   56) = (   0.1666667   0.3849002  -0.3061862), wk =   0.0138889
        k(   57) = (   0.1666667   0.4811252   0.0000000), wk =   0.0138889
        k(   58) = (   0.1666667   0.4811252   0.1020621), wk =   0.0277778
        k(   59) = (   0.1666667   0.4811252   0.2041241), wk =   0.0277778
        k(   60) = (   0.1666667   0.4811252  -0.3061862), wk =   0.0138889
        k(   61) = (   0.1666667   0.5773503   0.0000000), wk =   0.0069444
        k(   62) = (   0.1666667   0.5773503   0.1020621), wk =   0.0138889
        k(   63) = (   0.1666667   0.5773503   0.2041241), wk =   0.0138889
        k(   64) = (   0.1666667   0.5773503  -0.3061862), wk =   0.0069444
        k(   65) = (   0.2500000   0.4330127   0.0000000), wk =   0.0069444
        k(   66) = (   0.2500000   0.4330127   0.1020621), wk =   0.0138889
        k(   67) = (   0.2500000   0.4330127   0.2041241), wk =   0.0138889
        k(   68) = (   0.2500000   0.4330127  -0.3061862), wk =   0.0069444
        k(   69) = (   0.2500000   0.5292377   0.0000000), wk =   0.0138889
        k(   70) = (   0.2500000   0.5292377   0.1020621), wk =   0.0277778
        k(   71) = (   0.2500000   0.5292377   0.2041241), wk =   0.0277778
        k(   72) = (   0.2500000   0.5292377  -0.3061862), wk =   0.0138889
        k(   73) = (   0.3333333   0.5773503   0.0000000), wk =   0.0023148
        k(   74) = (   0.3333333   0.5773503   0.1020621), wk =   0.0046296
        k(   75) = (   0.3333333   0.5773503   0.2041241), wk =   0.0046296
        k(   76) = (   0.3333333   0.5773503  -0.3061862), wk =   0.0023148

     Dense  grid:     3633 G-vectors     FFT dimensions: (  18,  18,  30)

     Smooth grid:     1165 G-vectors     FFT dimensions: (  12,  12,  20)

     Estimated max dynamical RAM per process >      20.15 MB
     Generating pointlists ...
     new r_m :   0.4125 (alat units)  1.3860 (a.u.) for type    1

     Initial potential from superposition of free atoms

     starting charge   17.99923, renormalised to   18.00000
     Starting wfcs are   12 randomized atomic wfcs +    1 random wfcs

     total cpu time spent up to now is        1.4 secs

     Self-consistent Calculation

     iteration #  1     ecut=    30.00 Ry     beta= 0.70
     Davidson diagonalization with overlap
     ethr =  1.00E-02,  avg # of iterations =  3.8

     total cpu time spent up to now is        4.0 secs

     total energy              =    -146.02112936 Ry
     Harris-Foulkes estimate   =    -145.29692893 Ry
     estimated scf accuracy    <       0.89713125 Ry

     total magnetization       =     2.88 Bohr mag/cell
     absolute magnetization    =     2.88 Bohr mag/cell

     iteration #  2     ecut=    30.00 Ry     beta= 0.70
     Davidson diagonalization with overlap
     ethr =  4.98E-03,  avg # of iterations =  1.0

     total cpu time spent up to now is        5.4 secs

     total energy              =    -146.17580676 Ry
     Harris-Foulkes estimate   =    -146.06180777 Ry
     estimated scf accuracy    <       0.15668583 Ry

     total magnetization       =     1.93 Bohr mag/cell
     absolute magnetization    =     1.93 Bohr mag/cell

     iteration #  3     ecut=    30.00 Ry     beta= 0.70
     Davidson diagonalization with overlap
     ethr =  8.70E-04,  avg # of iterations =  1.0

     total cpu time spent up to now is        6.9 secs

     total energy              =    -146.23089255 Ry
     Harris-Foulkes estimate   =    -146.22494772 Ry
     estimated scf accuracy    <       0.01587228 Ry

     total magnetization       =     0.58 Bohr mag/cell
     absolute magnetization    =     0.65 Bohr mag/cell

     iteration #  4     ecut=    30.00 Ry     beta= 0.70
     Davidson diagonalization with overlap
     ethr =  8.82E-05,  avg # of iterations =  1.0

     total cpu time spent up to now is        8.3 secs

     total energy              =    -146.22840994 Ry
     Harris-Foulkes estimate   =    -146.23306207 Ry
     estimated scf accuracy    <       0.00479495 Ry

     total magnetization       =     0.32 Bohr mag/cell
     absolute magnetization    =     0.39 Bohr mag/cell

     iteration #  5     ecut=    30.00 Ry     beta= 0.70
     Davidson diagonalization with overlap
     ethr =  2.66E-05,  avg # of iterations =  2.2

     total cpu time spent up to now is       10.1 secs

     total energy              =    -146.23696660 Ry
     Harris-Foulkes estimate   =    -146.23648263 Ry
     estimated scf accuracy    <       0.00122311 Ry

     total magnetization       =    -0.19 Bohr mag/cell
     absolute magnetization    =     0.19 Bohr mag/cell

     iteration #  6     ecut=    30.00 Ry     beta= 0.70
     Davidson diagonalization with overlap
     ethr =  6.80E-06,  avg # of iterations =  1.1

     total cpu time spent up to now is       11.5 secs

     total energy              =    -146.23766665 Ry
     Harris-Foulkes estimate   =    -146.23768568 Ry
     estimated scf accuracy    <       0.00002197 Ry

     total magnetization       =    -0.02 Bohr mag/cell
     absolute magnetization    =     0.02 Bohr mag/cell

     iteration #  7     ecut=    30.00 Ry     beta= 0.70
     Davidson diagonalization with overlap
     ethr =  1.22E-07,  avg # of iterations =  2.1

     total cpu time spent up to now is       13.3 secs

     total energy              =    -146.23769952 Ry
     Harris-Foulkes estimate   =    -146.23769877 Ry
     estimated scf accuracy    <       0.00000393 Ry

     total magnetization       =     0.01 Bohr mag/cell
     absolute magnetization    =     0.01 Bohr mag/cell

     iteration #  8     ecut=    30.00 Ry     beta= 0.70
     Davidson diagonalization with overlap
     ethr =  2.18E-08,  avg # of iterations =  1.7

     total cpu time spent up to now is       14.8 secs

     total energy              =    -146.23770256 Ry
     Harris-Foulkes estimate   =    -146.23770257 Ry
     estimated scf accuracy    <       0.00000004 Ry

     total magnetization       =     0.00 Bohr mag/cell
     absolute magnetization    =     0.00 Bohr mag/cell

     iteration #  9     ecut=    30.00 Ry     beta= 0.70
     Davidson diagonalization with overlap
     ethr =  2.16E-10,  avg # of iterations =  2.7

     Magnetic moment per site:
     atom:    1    charge:    7.0923    magn:   -0.0001    constr:    0.0000
     atom:    2    charge:    7.0923    magn:   -0.0001    constr:    0.0000

     total cpu time spent up to now is       16.8 secs

     End of self-consistent calculation

     Number of k-points >= 100: set verbosity='high' to print the bands.

     the Fermi energy is    45.0568 ev

!    total energy              =    -146.23770261 Ry
     Harris-Foulkes estimate   =    -146.23770260 Ry
     estimated scf accuracy    <          1.8E-09 Ry

     The total energy is the sum of the following terms:

     one-electron contribution =      69.29603384 Ry
     hartree contribution      =       9.30101343 Ry
     xc contribution           =     -68.53025888 Ry
     ewald contribution        =    -156.30389751 Ry
     smearing contrib. (-TS)   =      -0.00059348 Ry

     total magnetization       =    -0.00 Bohr mag/cell
     absolute magnetization    =     0.00 Bohr mag/cell

     convergence has been achieved in   9 iterations

     Forces acting on atoms (cartesian axes, Ry/au):

     atom    1 type  1   force =    -0.00000000   -0.00000000    0.00000000
     atom    2 type  1   force =     0.00000000    0.00000000    0.00000000

     Total force =     0.000000     Total SCF correction =     0.000000


     Computing stress (Cartesian axis) and pressure

          total   stress  (Ry/bohr**3)                   (kbar)     P=17648.25
   0.12003018   0.00000000   0.00000000      17657.05      0.00      0.00
   0.00000000   0.12003018   0.00000000          0.00  17657.05      0.00
   0.00000000   0.00000000   0.11985072          0.00      0.00  17630.65


     Writing output data file Co.HCP.save/

     init_run     :      1.06s CPU      1.11s WALL (       1 calls)
     electrons    :     15.04s CPU     15.41s WALL (       1 calls)
     forces       :      0.44s CPU      0.44s WALL (       1 calls)
     stress       :      0.77s CPU      0.78s WALL (       1 calls)

     Called by init_run:
     wfcinit      :      0.43s CPU      0.47s WALL (       1 calls)
     potinit      :      0.02s CPU      0.02s WALL (       1 calls)
     hinit0       :      0.56s CPU      0.56s WALL (       1 calls)

     Called by electrons:
     c_bands      :     12.23s CPU     12.53s WALL (       9 calls)
     sum_band     :      2.27s CPU      2.32s WALL (       9 calls)
     v_of_rho     :      0.09s CPU      0.09s WALL (      10 calls)
     newd         :      0.45s CPU      0.46s WALL (      10 calls)
     mix_rho      :      0.03s CPU      0.04s WALL (       9 calls)

     Called by c_bands:
     init_us_2    :      0.41s CPU      0.42s WALL (    3192 calls)
     cegterg      :     11.47s CPU     11.76s WALL (    1368 calls)

     Called by sum_band:
     sum_band:bec :      0.12s CPU      0.13s WALL (    1368 calls)
     addusdens    :      0.72s CPU      0.72s WALL (       9 calls)

     Called by *egterg:
     h_psi        :      5.24s CPU      5.40s WALL (    4053 calls)
     s_psi        :      1.30s CPU      1.34s WALL (    4053 calls)
     g_psi        :      0.03s CPU      0.03s WALL (    2533 calls)
     cdiaghg      :      2.48s CPU      2.55s WALL (    3901 calls)

     Called by h_psi:
     h_psi:pot    :      5.20s CPU      5.36s WALL (    4053 calls)
     h_psi:calbec :      1.37s CPU      1.41s WALL (    4053 calls)
     vloc_psi     :      2.53s CPU      2.61s WALL (    4053 calls)
     add_vuspsi   :      1.28s CPU      1.32s WALL (    4053 calls)

     General routines
     calbec       :      2.17s CPU      2.24s WALL (    6181 calls)
     fft          :      0.11s CPU      0.11s WALL (     114 calls)
     ffts         :      0.00s CPU      0.00s WALL (      38 calls)
     fftw         :      1.70s CPU      1.77s WALL (  104388 calls)
     interpolate  :      0.02s CPU      0.02s WALL (      20 calls)

     Parallel routines

     PWSCF        :     17.73s CPU     18.18s WALL


   This run was terminated on:  13:17:24  19Feb2020            

=------------------------------------------------------------------------------=
   JOB DONE.
=------------------------------------------------------------------------------=
