     Message from routine get_command_line:
     unexpected argument # 2     :-input

     Program PWSCF v.6.4.1 starts on 19Feb2020 at 13:26:59 

     This program is part of the open-source Quantum ESPRESSO suite
     for quantum simulation of materials; please cite
         "P. Giannozzi et al., J. Phys.:Condens. Matter 21 395502 (2009);
         "P. Giannozzi et al., J. Phys.:Condens. Matter 29 465901 (2017);
          URL http://www.quantum-espresso.org", 
     in publications or presentations arising from this work. More details at
     http://www.quantum-espresso.org/quote

     Parallel version (MPI), running on     1 processors

     MPI processes distributed on     1 nodes
     Waiting for input...
     Reading input from standard input

     Current dimensions of program PWSCF are:
     Max number of different atomic species (ntypx) = 10
     Max number of k-points (npk) =  40000
     Max angular momentum in pseudopotentials (lmaxx) =  3
               file Co.pz-nd-rrkjus.UPF: wavefunction(s)  4S 3D renormalized

     Subspace diagonalization in iterative solution of the eigenvalue problem:
     a serial algorithm will be used


     G-vector sticks info
     --------------------
     sticks:   dense  smooth     PW     G-vecs:    dense   smooth      PW
     Sum         253     121     43                 5275     1761     379



     bravais-lattice index     =            4
     lattice parameter (alat)  =       3.8000  a.u.
     unit-cell volume          =      77.6007 (a.u.)^3
     number of atoms/cell      =            2
     number of atomic types    =            1
     number of electrons       =        18.00
     number of Kohn-Sham states=           13
     kinetic-energy cutoff     =      30.0000  Ry
     charge density cutoff     =     250.0000  Ry
     convergence threshold     =      1.0E-08
     mixing beta               =       0.7000
     number of iterations used =            8  plain     mixing
     Exchange-correlation      =  SLA  PZ   NOGX NOGC ( 1  1  0  0 0 0)

     celldm(1)=   3.800000  celldm(2)=   0.000000  celldm(3)=   1.632993
     celldm(4)=   0.000000  celldm(5)=   0.000000  celldm(6)=   0.000000

     crystal axes: (cart. coord. in units of alat)
               a(1) = (   1.000000   0.000000   0.000000 )  
               a(2) = (  -0.500000   0.866025   0.000000 )  
               a(3) = (   0.000000   0.000000   1.632993 )  

     reciprocal axes: (cart. coord. in units 2 pi/alat)
               b(1) = (  1.000000  0.577350 -0.000000 )  
               b(2) = (  0.000000  1.154701  0.000000 )  
               b(3) = (  0.000000 -0.000000  0.612372 )  


     PseudoPot. # 1 for Co read from file:
     ./Co.pz-nd-rrkjus.UPF
     MD5 check sum: c80159f6ca3a93d3df3cfc6468bb3c3d
     Pseudo is Ultrasoft + core correction, Zval =  9.0
     Generated by new atomic code, or converted to UPF format
     Using radial grid of  961 points,  6 beta functions with: 
                l(1) =   0
                l(2) =   0
                l(3) =   1
                l(4) =   1
                l(5) =   2
                l(6) =   2
     Q(r) pseudized with 0 coefficients 


     atomic species   valence    mass     pseudopotential
        Co             9.00    58.93300     Co( 1.00)

     Starting magnetic structure 
     atomic species   magnetization
        Co           0.700

     24 Sym. Ops., with inversion, found (12 have fractional translation)



   Cartesian axes

     site n.     atom                  positions (alat units)
         1           Co  tau(   1) = (  -0.0000000   0.5773503   0.4082483  )
         2           Co  tau(   2) = (   0.5000000   0.2886751   1.2247449  )

     number of k points=    76  Marzari-Vanderbilt smearing, width (Ry)=  0.0300
                       cart. coord. in units 2pi/alat
        k(    1) = (   0.0000000   0.0000000   0.0000000), wk =   0.0011574
        k(    2) = (   0.0000000   0.0000000   0.1020621), wk =   0.0023148
        k(    3) = (   0.0000000   0.0000000   0.2041241), wk =   0.0023148
        k(    4) = (   0.0000000   0.0000000  -0.3061862), wk =   0.0011574
        k(    5) = (   0.0000000   0.0962250   0.0000000), wk =   0.0069444
        k(    6) = (   0.0000000   0.0962250   0.1020621), wk =   0.0138889
        k(    7) = (   0.0000000   0.0962250   0.2041241), wk =   0.0138889
        k(    8) = (   0.0000000   0.0962250  -0.3061862), wk =   0.0069444
        k(    9) = (   0.0000000   0.1924501   0.0000000), wk =   0.0069444
        k(   10) = (   0.0000000   0.1924501   0.1020621), wk =   0.0138889
        k(   11) = (   0.0000000   0.1924501   0.2041241), wk =   0.0138889
        k(   12) = (   0.0000000   0.1924501  -0.3061862), wk =   0.0069444
        k(   13) = (   0.0000000   0.2886751   0.0000000), wk =   0.0069444
        k(   14) = (   0.0000000   0.2886751   0.1020621), wk =   0.0138889
        k(   15) = (   0.0000000   0.2886751   0.2041241), wk =   0.0138889
        k(   16) = (   0.0000000   0.2886751  -0.3061862), wk =   0.0069444
        k(   17) = (   0.0000000   0.3849002   0.0000000), wk =   0.0069444
        k(   18) = (   0.0000000   0.3849002   0.1020621), wk =   0.0138889
        k(   19) = (   0.0000000   0.3849002   0.2041241), wk =   0.0138889
        k(   20) = (   0.0000000   0.3849002  -0.3061862), wk =   0.0069444
        k(   21) = (   0.0000000   0.4811252   0.0000000), wk =   0.0069444
        k(   22) = (   0.0000000   0.4811252   0.1020621), wk =   0.0138889
        k(   23) = (   0.0000000   0.4811252   0.2041241), wk =   0.0138889
        k(   24) = (   0.0000000   0.4811252  -0.3061862), wk =   0.0069444
        k(   25) = (   0.0000000  -0.5773503   0.0000000), wk =   0.0034722
        k(   26) = (   0.0000000  -0.5773503   0.1020621), wk =   0.0069444
        k(   27) = (   0.0000000  -0.5773503   0.2041241), wk =   0.0069444
        k(   28) = (   0.0000000  -0.5773503  -0.3061862), wk =   0.0034722
        k(   29) = (   0.0833333   0.1443376   0.0000000), wk =   0.0069444
        k(   30) = (   0.0833333   0.1443376   0.1020621), wk =   0.0138889
        k(   31) = (   0.0833333   0.1443376   0.2041241), wk =   0.0138889
        k(   32) = (   0.0833333   0.1443376  -0.3061862), wk =   0.0069444
        k(   33) = (   0.0833333   0.2405626   0.0000000), wk =   0.0138889
        k(   34) = (   0.0833333   0.2405626   0.1020621), wk =   0.0277778
        k(   35) = (   0.0833333   0.2405626   0.2041241), wk =   0.0277778
        k(   36) = (   0.0833333   0.2405626  -0.3061862), wk =   0.0138889
        k(   37) = (   0.0833333   0.3367877   0.0000000), wk =   0.0138889
        k(   38) = (   0.0833333   0.3367877   0.1020621), wk =   0.0277778
        k(   39) = (   0.0833333   0.3367877   0.2041241), wk =   0.0277778
        k(   40) = (   0.0833333   0.3367877  -0.3061862), wk =   0.0138889
        k(   41) = (   0.0833333   0.4330127   0.0000000), wk =   0.0138889
        k(   42) = (   0.0833333   0.4330127   0.1020621), wk =   0.0277778
        k(   43) = (   0.0833333   0.4330127   0.2041241), wk =   0.0277778
        k(   44) = (   0.0833333   0.4330127  -0.3061862), wk =   0.0138889
        k(   45) = (   0.0833333   0.5292377   0.0000000), wk =   0.0138889
        k(   46) = (   0.0833333   0.5292377   0.1020621), wk =   0.0277778
        k(   47) = (   0.0833333   0.5292377   0.2041241), wk =   0.0277778
        k(   48) = (   0.0833333   0.5292377  -0.3061862), wk =   0.0138889
        k(   49) = (   0.1666667   0.2886751   0.0000000), wk =   0.0069444
        k(   50) = (   0.1666667   0.2886751   0.1020621), wk =   0.0138889
        k(   51) = (   0.1666667   0.2886751   0.2041241), wk =   0.0138889
        k(   52) = (   0.1666667   0.2886751  -0.3061862), wk =   0.0069444
        k(   53) = (   0.1666667   0.3849002   0.0000000), wk =   0.0138889
        k(   54) = (   0.1666667   0.3849002   0.1020621), wk =   0.0277778
        k(   55) = (   0.1666667   0.3849002   0.2041241), wk =   0.0277778
        k(   56) = (   0.1666667   0.3849002  -0.3061862), wk =   0.0138889
        k(   57) = (   0.1666667   0.4811252   0.0000000), wk =   0.0138889
        k(   58) = (   0.1666667   0.4811252   0.1020621), wk =   0.0277778
        k(   59) = (   0.1666667   0.4811252   0.2041241), wk =   0.0277778
        k(   60) = (   0.1666667   0.4811252  -0.3061862), wk =   0.0138889
        k(   61) = (   0.1666667   0.5773503   0.0000000), wk =   0.0069444
        k(   62) = (   0.1666667   0.5773503   0.1020621), wk =   0.0138889
        k(   63) = (   0.1666667   0.5773503   0.2041241), wk =   0.0138889
        k(   64) = (   0.1666667   0.5773503  -0.3061862), wk =   0.0069444
        k(   65) = (   0.2500000   0.4330127   0.0000000), wk =   0.0069444
        k(   66) = (   0.2500000   0.4330127   0.1020621), wk =   0.0138889
        k(   67) = (   0.2500000   0.4330127   0.2041241), wk =   0.0138889
        k(   68) = (   0.2500000   0.4330127  -0.3061862), wk =   0.0069444
        k(   69) = (   0.2500000   0.5292377   0.0000000), wk =   0.0138889
        k(   70) = (   0.2500000   0.5292377   0.1020621), wk =   0.0277778
        k(   71) = (   0.2500000   0.5292377   0.2041241), wk =   0.0277778
        k(   72) = (   0.2500000   0.5292377  -0.3061862), wk =   0.0138889
        k(   73) = (   0.3333333   0.5773503   0.0000000), wk =   0.0023148
        k(   74) = (   0.3333333   0.5773503   0.1020621), wk =   0.0046296
        k(   75) = (   0.3333333   0.5773503   0.2041241), wk =   0.0046296
        k(   76) = (   0.3333333   0.5773503  -0.3061862), wk =   0.0023148

     Dense  grid:     5275 G-vectors     FFT dimensions: (  20,  20,  32)

     Smooth grid:     1761 G-vectors     FFT dimensions: (  15,  15,  24)

     Estimated max dynamical RAM per process >      28.86 MB
     Generating pointlists ...
     new r_m :   0.4125 (alat units)  1.5675 (a.u.) for type    1

     Initial potential from superposition of free atoms

     starting charge   17.99923, renormalised to   18.00000
     Starting wfcs are   12 randomized atomic wfcs +    1 random wfcs

     total cpu time spent up to now is        1.7 secs

     Self-consistent Calculation

     iteration #  1     ecut=    30.00 Ry     beta= 0.70
     Davidson diagonalization with overlap
     ethr =  1.00E-02,  avg # of iterations =  3.6

     total cpu time spent up to now is        5.2 secs

     total energy              =    -147.60191496 Ry
     Harris-Foulkes estimate   =    -147.20071663 Ry
     estimated scf accuracy    <       0.90797397 Ry

     total magnetization       =     3.57 Bohr mag/cell
     absolute magnetization    =     3.57 Bohr mag/cell

     iteration #  2     ecut=    30.00 Ry     beta= 0.70
     Davidson diagonalization with overlap
     ethr =  5.04E-03,  avg # of iterations =  1.8

     total cpu time spent up to now is        7.4 secs

     total energy              =    -147.76206883 Ry
     Harris-Foulkes estimate   =    -147.76789836 Ry
     estimated scf accuracy    <       0.18829900 Ry

     total magnetization       =     2.96 Bohr mag/cell
     absolute magnetization    =     3.00 Bohr mag/cell

     iteration #  3     ecut=    30.00 Ry     beta= 0.70
     Davidson diagonalization with overlap
     ethr =  1.05E-03,  avg # of iterations =  2.0

     total cpu time spent up to now is        9.9 secs

     total energy              =    -147.83660116 Ry
     Harris-Foulkes estimate   =    -147.82406928 Ry
     estimated scf accuracy    <       0.08145999 Ry

     total magnetization       =     2.12 Bohr mag/cell
     absolute magnetization    =     2.20 Bohr mag/cell

     iteration #  4     ecut=    30.00 Ry     beta= 0.70
     Davidson diagonalization with overlap
     ethr =  4.53E-04,  avg # of iterations =  1.4

     total cpu time spent up to now is       12.1 secs

     total energy              =    -147.86236422 Ry
     Harris-Foulkes estimate   =    -147.86244603 Ry
     estimated scf accuracy    <       0.00801968 Ry

     total magnetization       =     1.16 Bohr mag/cell
     absolute magnetization    =     1.28 Bohr mag/cell

     iteration #  5     ecut=    30.00 Ry     beta= 0.70
     Davidson diagonalization with overlap
     ethr =  4.46E-05,  avg # of iterations =  1.1

     total cpu time spent up to now is       14.1 secs

     total energy              =    -147.86129782 Ry
     Harris-Foulkes estimate   =    -147.86261605 Ry
     estimated scf accuracy    <       0.00811430 Ry

     total magnetization       =     1.17 Bohr mag/cell
     absolute magnetization    =     1.29 Bohr mag/cell

     iteration #  6     ecut=    30.00 Ry     beta= 0.70
     Davidson diagonalization with overlap
     ethr =  4.46E-05,  avg # of iterations =  1.0

     total cpu time spent up to now is       16.1 secs

     total energy              =    -147.86128667 Ry
     Harris-Foulkes estimate   =    -147.86140380 Ry
     estimated scf accuracy    <       0.00943435 Ry

     total magnetization       =     1.23 Bohr mag/cell
     absolute magnetization    =     1.35 Bohr mag/cell

     iteration #  7     ecut=    30.00 Ry     beta= 0.70
     Davidson diagonalization with overlap
     ethr =  4.46E-05,  avg # of iterations =  1.0

     negative rho (up, down):  4.312E-03 0.000E+00

     total cpu time spent up to now is       18.1 secs

     total energy              =    -147.88643537 Ry
     Harris-Foulkes estimate   =    -147.86147910 Ry
     estimated scf accuracy    <       0.02746374 Ry

     total magnetization       =     1.29 Bohr mag/cell
     absolute magnetization    =     1.41 Bohr mag/cell

     iteration #  8     ecut=    30.00 Ry     beta= 0.70
     Davidson diagonalization with overlap
     ethr =  4.46E-05,  avg # of iterations =  2.3

     negative rho (up, down):  8.177E-04 0.000E+00

     total cpu time spent up to now is       20.8 secs

     total energy              =    -147.87276673 Ry
     Harris-Foulkes estimate   =    -147.89548450 Ry
     estimated scf accuracy    <       0.22150457 Ry

     total magnetization       =     0.73 Bohr mag/cell
     absolute magnetization    =     0.80 Bohr mag/cell

     iteration #  9     ecut=    30.00 Ry     beta= 0.70
     Davidson diagonalization with overlap
     ethr =  4.46E-05,  avg # of iterations =  2.1

     negative rho (up, down):  5.596E-04 0.000E+00

     total cpu time spent up to now is       23.2 secs

     total energy              =    -147.87789047 Ry
     Harris-Foulkes estimate   =    -147.87856567 Ry
     estimated scf accuracy    <       0.04099271 Ry

     total magnetization       =     0.25 Bohr mag/cell
     absolute magnetization    =     0.29 Bohr mag/cell

     iteration # 10     ecut=    30.00 Ry     beta= 0.70
     Davidson diagonalization with overlap
     ethr =  4.46E-05,  avg # of iterations =  1.0

     total cpu time spent up to now is       25.2 secs

     total energy              =    -147.87531951 Ry
     Harris-Foulkes estimate   =    -147.87792783 Ry
     estimated scf accuracy    <       0.03297187 Ry

     total magnetization       =     0.22 Bohr mag/cell
     absolute magnetization    =     0.25 Bohr mag/cell

     iteration # 11     ecut=    30.00 Ry     beta= 0.70
     Davidson diagonalization with overlap
     ethr =  4.46E-05,  avg # of iterations =  1.0

     total cpu time spent up to now is       27.2 secs

     total energy              =    -147.87500380 Ry
     Harris-Foulkes estimate   =    -147.87577975 Ry
     estimated scf accuracy    <       0.00513840 Ry

     total magnetization       =     0.10 Bohr mag/cell
     absolute magnetization    =     0.11 Bohr mag/cell

     iteration # 12     ecut=    30.00 Ry     beta= 0.70
     Davidson diagonalization with overlap
     ethr =  2.85E-05,  avg # of iterations =  1.3

     total cpu time spent up to now is       29.3 secs

     total energy              =    -147.87543371 Ry
     Harris-Foulkes estimate   =    -147.87559634 Ry
     estimated scf accuracy    <       0.00220578 Ry

     total magnetization       =    -0.04 Bohr mag/cell
     absolute magnetization    =     0.05 Bohr mag/cell

     iteration # 13     ecut=    30.00 Ry     beta= 0.70
     Davidson diagonalization with overlap
     ethr =  1.23E-05,  avg # of iterations =  1.0

     total cpu time spent up to now is       31.3 secs

     total energy              =    -147.87550668 Ry
     Harris-Foulkes estimate   =    -147.87550701 Ry
     estimated scf accuracy    <       0.00000417 Ry

     total magnetization       =    -0.00 Bohr mag/cell
     absolute magnetization    =     0.00 Bohr mag/cell

     iteration # 14     ecut=    30.00 Ry     beta= 0.70
     Davidson diagonalization with overlap
     ethr =  2.32E-08,  avg # of iterations =  3.2

     total cpu time spent up to now is       34.5 secs

     total energy              =    -147.87550919 Ry
     Harris-Foulkes estimate   =    -147.87550936 Ry
     estimated scf accuracy    <       0.00000058 Ry

     total magnetization       =     0.00 Bohr mag/cell
     absolute magnetization    =     0.00 Bohr mag/cell

     iteration # 15     ecut=    30.00 Ry     beta= 0.70
     Davidson diagonalization with overlap
     ethr =  3.21E-09,  avg # of iterations =  1.5

     total cpu time spent up to now is       36.7 secs

     total energy              =    -147.87550927 Ry
     Harris-Foulkes estimate   =    -147.87550930 Ry
     estimated scf accuracy    <       0.00000009 Ry

     total magnetization       =    -0.00 Bohr mag/cell
     absolute magnetization    =     0.00 Bohr mag/cell

     iteration # 16     ecut=    30.00 Ry     beta= 0.70
     Davidson diagonalization with overlap
     ethr =  5.02E-10,  avg # of iterations =  1.7

     Magnetic moment per site:
     atom:    1    charge:    7.2611    magn:   -0.0001    constr:    0.0000
     atom:    2    charge:    7.2611    magn:   -0.0001    constr:    0.0000

     total cpu time spent up to now is       39.1 secs

     End of self-consistent calculation

     Number of k-points >= 100: set verbosity='high' to print the bands.

     the Fermi energy is    30.1681 ev

!    total energy              =    -147.87550929 Ry
     Harris-Foulkes estimate   =    -147.87550929 Ry
     estimated scf accuracy    <          3.8E-09 Ry

     The total energy is the sum of the following terms:

     one-electron contribution =      44.09936171 Ry
     hartree contribution      =      12.68136612 Ry
     xc contribution           =     -66.44924107 Ry
     ewald contribution        =    -138.20555149 Ry
     smearing contrib. (-TS)   =      -0.00144456 Ry

     total magnetization       =    -0.00 Bohr mag/cell
     absolute magnetization    =     0.00 Bohr mag/cell

     convergence has been achieved in  16 iterations

     Forces acting on atoms (cartesian axes, Ry/au):

     atom    1 type  1   force =     0.00000000   -0.00000000    0.00000000
     atom    2 type  1   force =     0.00000000    0.00000000    0.00000000

     Total force =     0.000000     Total SCF correction =     0.000000


     Computing stress (Cartesian axis) and pressure

          total   stress  (Ry/bohr**3)                   (kbar)     P= 5000.84
   0.03423338  -0.00000000  -0.00000000       5035.90     -0.00     -0.00
  -0.00000000   0.03423338   0.00000000         -0.00   5035.90      0.00
   0.00000000   0.00000000   0.03351834          0.00      0.00   4930.72


     Writing output data file Co.HCP.save/

     init_run     :      1.37s CPU      1.41s WALL (       1 calls)
     electrons    :     36.57s CPU     37.44s WALL (       1 calls)
     forces       :      0.60s CPU      0.61s WALL (       1 calls)
     stress       :      0.99s CPU      1.00s WALL (       1 calls)

     Called by init_run:
     wfcinit      :      0.66s CPU      0.68s WALL (       1 calls)
     potinit      :      0.04s CPU      0.04s WALL (       1 calls)
     hinit0       :      0.59s CPU      0.61s WALL (       1 calls)

     Called by electrons:
     c_bands      :     29.12s CPU     29.87s WALL (      16 calls)
     sum_band     :      6.19s CPU      6.31s WALL (      16 calls)
     v_of_rho     :      0.17s CPU      0.17s WALL (      17 calls)
     newd         :      1.12s CPU      1.12s WALL (      17 calls)
     mix_rho      :      0.03s CPU      0.03s WALL (      16 calls)

     Called by c_bands:
     init_us_2    :      0.94s CPU      0.97s WALL (    5320 calls)
     cegterg      :     27.25s CPU     27.96s WALL (    2432 calls)

     Called by sum_band:
     sum_band:bec :      0.22s CPU      0.23s WALL (    2432 calls)
     addusdens    :      1.80s CPU      1.81s WALL (      16 calls)

     Called by *egterg:
     h_psi        :     14.62s CPU     15.02s WALL (    6689 calls)
     s_psi        :      2.99s CPU      3.06s WALL (    6689 calls)
     g_psi        :      0.07s CPU      0.07s WALL (    4105 calls)
     cdiaghg      :      3.78s CPU      3.91s WALL (    6537 calls)

     Called by h_psi:
     h_psi:pot    :     14.55s CPU     14.95s WALL (    6689 calls)
     h_psi:calbec :      3.31s CPU      3.41s WALL (    6689 calls)
     vloc_psi     :      8.24s CPU      8.46s WALL (    6689 calls)
     add_vuspsi   :      2.96s CPU      3.04s WALL (    6689 calls)

     General routines
     calbec       :      5.12s CPU      5.25s WALL (    9881 calls)
     fft          :      0.02s CPU      0.02s WALL (     191 calls)
     ffts         :      0.02s CPU      0.02s WALL (      66 calls)
     fftw         :      6.07s CPU      6.24s WALL (  176968 calls)
     interpolate  :      0.02s CPU      0.02s WALL (      34 calls)

     Parallel routines

     PWSCF        :     39.86s CPU     40.82s WALL


   This run was terminated on:  13:27:40  19Feb2020            

=------------------------------------------------------------------------------=
   JOB DONE.
=------------------------------------------------------------------------------=
