     Message from routine get_command_line:
     unexpected argument # 2     :-input

     Program PWSCF v.6.4.1 starts on 19Feb2020 at 13:51:25 

     This program is part of the open-source Quantum ESPRESSO suite
     for quantum simulation of materials; please cite
         "P. Giannozzi et al., J. Phys.:Condens. Matter 21 395502 (2009);
         "P. Giannozzi et al., J. Phys.:Condens. Matter 29 465901 (2017);
          URL http://www.quantum-espresso.org", 
     in publications or presentations arising from this work. More details at
     http://www.quantum-espresso.org/quote

     Parallel version (MPI), running on     1 processors

     MPI processes distributed on     1 nodes
     Waiting for input...
     Reading input from standard input

     Current dimensions of program PWSCF are:
     Max number of different atomic species (ntypx) = 10
     Max number of k-points (npk) =  40000
     Max angular momentum in pseudopotentials (lmaxx) =  3
               file Co.pz-nd-rrkjus.UPF: wavefunction(s)  4S 3D renormalized

     Subspace diagonalization in iterative solution of the eigenvalue problem:
     a serial algorithm will be used


     G-vector sticks info
     --------------------
     sticks:   dense  smooth     PW     G-vecs:    dense   smooth      PW
     Sum         313     151     55                 7475     2491     549



     bravais-lattice index     =            4
     lattice parameter (alat)  =       4.2800  a.u.
     unit-cell volume          =     110.8782 (a.u.)^3
     number of atoms/cell      =            2
     number of atomic types    =            1
     number of electrons       =        18.00
     number of Kohn-Sham states=           13
     kinetic-energy cutoff     =      30.0000  Ry
     charge density cutoff     =     250.0000  Ry
     convergence threshold     =      1.0E-08
     mixing beta               =       0.7000
     number of iterations used =            8  plain     mixing
     Exchange-correlation      =  SLA  PZ   NOGX NOGC ( 1  1  0  0 0 0)

     celldm(1)=   4.280000  celldm(2)=   0.000000  celldm(3)=   1.632993
     celldm(4)=   0.000000  celldm(5)=   0.000000  celldm(6)=   0.000000

     crystal axes: (cart. coord. in units of alat)
               a(1) = (   1.000000   0.000000   0.000000 )  
               a(2) = (  -0.500000   0.866025   0.000000 )  
               a(3) = (   0.000000   0.000000   1.632993 )  

     reciprocal axes: (cart. coord. in units 2 pi/alat)
               b(1) = (  1.000000  0.577350 -0.000000 )  
               b(2) = (  0.000000  1.154701  0.000000 )  
               b(3) = (  0.000000 -0.000000  0.612372 )  


     PseudoPot. # 1 for Co read from file:
     ./Co.pz-nd-rrkjus.UPF
     MD5 check sum: c80159f6ca3a93d3df3cfc6468bb3c3d
     Pseudo is Ultrasoft + core correction, Zval =  9.0
     Generated by new atomic code, or converted to UPF format
     Using radial grid of  961 points,  6 beta functions with: 
                l(1) =   0
                l(2) =   0
                l(3) =   1
                l(4) =   1
                l(5) =   2
                l(6) =   2
     Q(r) pseudized with 0 coefficients 


     atomic species   valence    mass     pseudopotential
        Co             9.00    58.93300     Co( 1.00)

     Starting magnetic structure 
     atomic species   magnetization
        Co           0.700

     24 Sym. Ops., with inversion, found (12 have fractional translation)



   Cartesian axes

     site n.     atom                  positions (alat units)
         1           Co  tau(   1) = (  -0.0000000   0.5773503   0.4082483  )
         2           Co  tau(   2) = (   0.5000000   0.2886751   1.2247449  )

     number of k points=    76  Marzari-Vanderbilt smearing, width (Ry)=  0.0300
                       cart. coord. in units 2pi/alat
        k(    1) = (   0.0000000   0.0000000   0.0000000), wk =   0.0011574
        k(    2) = (   0.0000000   0.0000000   0.1020621), wk =   0.0023148
        k(    3) = (   0.0000000   0.0000000   0.2041241), wk =   0.0023148
        k(    4) = (   0.0000000   0.0000000  -0.3061862), wk =   0.0011574
        k(    5) = (   0.0000000   0.0962250   0.0000000), wk =   0.0069444
        k(    6) = (   0.0000000   0.0962250   0.1020621), wk =   0.0138889
        k(    7) = (   0.0000000   0.0962250   0.2041241), wk =   0.0138889
        k(    8) = (   0.0000000   0.0962250  -0.3061862), wk =   0.0069444
        k(    9) = (   0.0000000   0.1924501   0.0000000), wk =   0.0069444
        k(   10) = (   0.0000000   0.1924501   0.1020621), wk =   0.0138889
        k(   11) = (   0.0000000   0.1924501   0.2041241), wk =   0.0138889
        k(   12) = (   0.0000000   0.1924501  -0.3061862), wk =   0.0069444
        k(   13) = (   0.0000000   0.2886751   0.0000000), wk =   0.0069444
        k(   14) = (   0.0000000   0.2886751   0.1020621), wk =   0.0138889
        k(   15) = (   0.0000000   0.2886751   0.2041241), wk =   0.0138889
        k(   16) = (   0.0000000   0.2886751  -0.3061862), wk =   0.0069444
        k(   17) = (   0.0000000   0.3849002   0.0000000), wk =   0.0069444
        k(   18) = (   0.0000000   0.3849002   0.1020621), wk =   0.0138889
        k(   19) = (   0.0000000   0.3849002   0.2041241), wk =   0.0138889
        k(   20) = (   0.0000000   0.3849002  -0.3061862), wk =   0.0069444
        k(   21) = (   0.0000000   0.4811252   0.0000000), wk =   0.0069444
        k(   22) = (   0.0000000   0.4811252   0.1020621), wk =   0.0138889
        k(   23) = (   0.0000000   0.4811252   0.2041241), wk =   0.0138889
        k(   24) = (   0.0000000   0.4811252  -0.3061862), wk =   0.0069444
        k(   25) = (   0.0000000  -0.5773503   0.0000000), wk =   0.0034722
        k(   26) = (   0.0000000  -0.5773503   0.1020621), wk =   0.0069444
        k(   27) = (   0.0000000  -0.5773503   0.2041241), wk =   0.0069444
        k(   28) = (   0.0000000  -0.5773503  -0.3061862), wk =   0.0034722
        k(   29) = (   0.0833333   0.1443376   0.0000000), wk =   0.0069444
        k(   30) = (   0.0833333   0.1443376   0.1020621), wk =   0.0138889
        k(   31) = (   0.0833333   0.1443376   0.2041241), wk =   0.0138889
        k(   32) = (   0.0833333   0.1443376  -0.3061862), wk =   0.0069444
        k(   33) = (   0.0833333   0.2405626   0.0000000), wk =   0.0138889
        k(   34) = (   0.0833333   0.2405626   0.1020621), wk =   0.0277778
        k(   35) = (   0.0833333   0.2405626   0.2041241), wk =   0.0277778
        k(   36) = (   0.0833333   0.2405626  -0.3061862), wk =   0.0138889
        k(   37) = (   0.0833333   0.3367877   0.0000000), wk =   0.0138889
        k(   38) = (   0.0833333   0.3367877   0.1020621), wk =   0.0277778
        k(   39) = (   0.0833333   0.3367877   0.2041241), wk =   0.0277778
        k(   40) = (   0.0833333   0.3367877  -0.3061862), wk =   0.0138889
        k(   41) = (   0.0833333   0.4330127   0.0000000), wk =   0.0138889
        k(   42) = (   0.0833333   0.4330127   0.1020621), wk =   0.0277778
        k(   43) = (   0.0833333   0.4330127   0.2041241), wk =   0.0277778
        k(   44) = (   0.0833333   0.4330127  -0.3061862), wk =   0.0138889
        k(   45) = (   0.0833333   0.5292377   0.0000000), wk =   0.0138889
        k(   46) = (   0.0833333   0.5292377   0.1020621), wk =   0.0277778
        k(   47) = (   0.0833333   0.5292377   0.2041241), wk =   0.0277778
        k(   48) = (   0.0833333   0.5292377  -0.3061862), wk =   0.0138889
        k(   49) = (   0.1666667   0.2886751   0.0000000), wk =   0.0069444
        k(   50) = (   0.1666667   0.2886751   0.1020621), wk =   0.0138889
        k(   51) = (   0.1666667   0.2886751   0.2041241), wk =   0.0138889
        k(   52) = (   0.1666667   0.2886751  -0.3061862), wk =   0.0069444
        k(   53) = (   0.1666667   0.3849002   0.0000000), wk =   0.0138889
        k(   54) = (   0.1666667   0.3849002   0.1020621), wk =   0.0277778
        k(   55) = (   0.1666667   0.3849002   0.2041241), wk =   0.0277778
        k(   56) = (   0.1666667   0.3849002  -0.3061862), wk =   0.0138889
        k(   57) = (   0.1666667   0.4811252   0.0000000), wk =   0.0138889
        k(   58) = (   0.1666667   0.4811252   0.1020621), wk =   0.0277778
        k(   59) = (   0.1666667   0.4811252   0.2041241), wk =   0.0277778
        k(   60) = (   0.1666667   0.4811252  -0.3061862), wk =   0.0138889
        k(   61) = (   0.1666667   0.5773503   0.0000000), wk =   0.0069444
        k(   62) = (   0.1666667   0.5773503   0.1020621), wk =   0.0138889
        k(   63) = (   0.1666667   0.5773503   0.2041241), wk =   0.0138889
        k(   64) = (   0.1666667   0.5773503  -0.3061862), wk =   0.0069444
        k(   65) = (   0.2500000   0.4330127   0.0000000), wk =   0.0069444
        k(   66) = (   0.2500000   0.4330127   0.1020621), wk =   0.0138889
        k(   67) = (   0.2500000   0.4330127   0.2041241), wk =   0.0138889
        k(   68) = (   0.2500000   0.4330127  -0.3061862), wk =   0.0069444
        k(   69) = (   0.2500000   0.5292377   0.0000000), wk =   0.0138889
        k(   70) = (   0.2500000   0.5292377   0.1020621), wk =   0.0277778
        k(   71) = (   0.2500000   0.5292377   0.2041241), wk =   0.0277778
        k(   72) = (   0.2500000   0.5292377  -0.3061862), wk =   0.0138889
        k(   73) = (   0.3333333   0.5773503   0.0000000), wk =   0.0023148
        k(   74) = (   0.3333333   0.5773503   0.1020621), wk =   0.0046296
        k(   75) = (   0.3333333   0.5773503   0.2041241), wk =   0.0046296
        k(   76) = (   0.3333333   0.5773503  -0.3061862), wk =   0.0023148

     Dense  grid:     7475 G-vectors     FFT dimensions: (  24,  24,  36)

     Smooth grid:     2491 G-vectors     FFT dimensions: (  15,  15,  30)

     Estimated max dynamical RAM per process >      41.05 MB
     Generating pointlists ...
     new r_m :   0.4125 (alat units)  1.7655 (a.u.) for type    1

     Check: negative core charge=   -0.000005

     Initial potential from superposition of free atoms

     starting charge   17.99923, renormalised to   18.00000
     Starting wfcs are   12 randomized atomic wfcs +    1 random wfcs

     total cpu time spent up to now is        2.2 secs

     Self-consistent Calculation

     iteration #  1     ecut=    30.00 Ry     beta= 0.70
     Davidson diagonalization with overlap
     ethr =  1.00E-02,  avg # of iterations =  3.6

     total cpu time spent up to now is        7.4 secs

     total energy              =    -147.98692014 Ry
     Harris-Foulkes estimate   =    -147.98213150 Ry
     estimated scf accuracy    <       1.06341816 Ry

     total magnetization       =     4.39 Bohr mag/cell
     absolute magnetization    =     4.40 Bohr mag/cell

     iteration #  2     ecut=    30.00 Ry     beta= 0.70
     Davidson diagonalization with overlap
     ethr =  5.91E-03,  avg # of iterations =  2.1

     total cpu time spent up to now is       11.7 secs

     total energy              =    -148.20416703 Ry
     Harris-Foulkes estimate   =    -148.47217715 Ry
     estimated scf accuracy    <       0.68422275 Ry

     total magnetization       =     3.22 Bohr mag/cell
     absolute magnetization    =     3.33 Bohr mag/cell

     iteration #  3     ecut=    30.00 Ry     beta= 0.70
     Davidson diagonalization with overlap
     ethr =  3.80E-03,  avg # of iterations =  2.0

     total cpu time spent up to now is       15.8 secs

     total energy              =    -148.37860682 Ry
     Harris-Foulkes estimate   =    -148.35727152 Ry
     estimated scf accuracy    <       0.04804826 Ry

     total magnetization       =     3.27 Bohr mag/cell
     absolute magnetization    =     3.41 Bohr mag/cell

     iteration #  4     ecut=    30.00 Ry     beta= 0.70
     Davidson diagonalization with overlap
     ethr =  2.67E-04,  avg # of iterations =  1.2

     total cpu time spent up to now is       19.1 secs

     total energy              =    -148.39224741 Ry
     Harris-Foulkes estimate   =    -148.39127599 Ry
     estimated scf accuracy    <       0.00260337 Ry

     total magnetization       =     2.60 Bohr mag/cell
     absolute magnetization    =     2.80 Bohr mag/cell

     iteration #  5     ecut=    30.00 Ry     beta= 0.70
     Davidson diagonalization with overlap
     ethr =  1.45E-05,  avg # of iterations =  2.2

     total cpu time spent up to now is       23.1 secs

     total energy              =    -148.39380610 Ry
     Harris-Foulkes estimate   =    -148.39288641 Ry
     estimated scf accuracy    <       0.00201046 Ry

     total magnetization       =     2.47 Bohr mag/cell
     absolute magnetization    =     2.65 Bohr mag/cell

     iteration #  6     ecut=    30.00 Ry     beta= 0.70
     Davidson diagonalization with overlap
     ethr =  1.12E-05,  avg # of iterations =  1.1

     total cpu time spent up to now is       26.5 secs

     total energy              =    -148.39366589 Ry
     Harris-Foulkes estimate   =    -148.39436064 Ry
     estimated scf accuracy    <       0.00102406 Ry

     total magnetization       =     2.29 Bohr mag/cell
     absolute magnetization    =     2.46 Bohr mag/cell

     iteration #  7     ecut=    30.00 Ry     beta= 0.70
     Davidson diagonalization with overlap
     ethr =  5.69E-06,  avg # of iterations =  2.5

     total cpu time spent up to now is       31.0 secs

     total energy              =    -148.39574291 Ry
     Harris-Foulkes estimate   =    -148.39631756 Ry
     estimated scf accuracy    <       0.00016866 Ry

     total magnetization       =     1.89 Bohr mag/cell
     absolute magnetization    =     2.01 Bohr mag/cell

     iteration #  8     ecut=    30.00 Ry     beta= 0.70
     Davidson diagonalization with overlap
     ethr =  9.37E-07,  avg # of iterations =  2.8

     total cpu time spent up to now is       35.9 secs

     total energy              =    -148.39661997 Ry
     Harris-Foulkes estimate   =    -148.39675096 Ry
     estimated scf accuracy    <       0.00001758 Ry

     total magnetization       =     1.63 Bohr mag/cell
     absolute magnetization    =     1.73 Bohr mag/cell

     iteration #  9     ecut=    30.00 Ry     beta= 0.70
     Davidson diagonalization with overlap
     ethr =  9.77E-08,  avg # of iterations =  2.9

     total cpu time spent up to now is       41.1 secs

     total energy              =    -148.39681026 Ry
     Harris-Foulkes estimate   =    -148.39680924 Ry
     estimated scf accuracy    <       0.00000343 Ry

     total magnetization       =     1.52 Bohr mag/cell
     absolute magnetization    =     1.60 Bohr mag/cell

     iteration # 10     ecut=    30.00 Ry     beta= 0.70
     Davidson diagonalization with overlap
     ethr =  1.91E-08,  avg # of iterations =  1.5

     total cpu time spent up to now is       44.8 secs

     total energy              =    -148.39680466 Ry
     Harris-Foulkes estimate   =    -148.39681146 Ry
     estimated scf accuracy    <       0.00000068 Ry

     total magnetization       =     1.51 Bohr mag/cell
     absolute magnetization    =     1.60 Bohr mag/cell

     iteration # 11     ecut=    30.00 Ry     beta= 0.70
     Davidson diagonalization with overlap
     ethr =  3.75E-09,  avg # of iterations =  2.9

     total cpu time spent up to now is       50.1 secs

     total energy              =    -148.39681376 Ry
     Harris-Foulkes estimate   =    -148.39681369 Ry
     estimated scf accuracy    <       0.00000007 Ry

     total magnetization       =     1.48 Bohr mag/cell
     absolute magnetization    =     1.57 Bohr mag/cell

     iteration # 12     ecut=    30.00 Ry     beta= 0.70
     Davidson diagonalization with overlap
     ethr =  3.95E-10,  avg # of iterations =  1.5

     total cpu time spent up to now is       53.8 secs

     total energy              =    -148.39681351 Ry
     Harris-Foulkes estimate   =    -148.39681377 Ry
     estimated scf accuracy    <       0.00000002 Ry

     total magnetization       =     1.48 Bohr mag/cell
     absolute magnetization    =     1.57 Bohr mag/cell

     iteration # 13     ecut=    30.00 Ry     beta= 0.70
     Davidson diagonalization with overlap
     ethr =  1.06E-10,  avg # of iterations =  3.0

     Magnetic moment per site:
     atom:    1    charge:    7.4827    magn:    0.7585    constr:    0.0000
     atom:    2    charge:    7.4827    magn:    0.7585    constr:    0.0000

     total cpu time spent up to now is       59.2 secs

     End of self-consistent calculation

     Number of k-points >= 100: set verbosity='high' to print the bands.

     the Fermi energy is    19.7078 ev

!    total energy              =    -148.39681384 Ry
     Harris-Foulkes estimate   =    -148.39681384 Ry
     estimated scf accuracy    <          2.6E-10 Ry

     The total energy is the sum of the following terms:

     one-electron contribution =      22.43237154 Ry
     hartree contribution      =      17.15281934 Ry
     xc contribution           =     -65.27384006 Ry
     ewald contribution        =    -122.70586347 Ry
     smearing contrib. (-TS)   =      -0.00230119 Ry

     total magnetization       =     1.48 Bohr mag/cell
     absolute magnetization    =     1.56 Bohr mag/cell

     convergence has been achieved in  13 iterations

     Forces acting on atoms (cartesian axes, Ry/au):

     atom    1 type  1   force =     0.00000000    0.00000000    0.00000000
     atom    2 type  1   force =     0.00000000    0.00000000    0.00000000

     Total force =     0.000000     Total SCF correction =     0.000000


     Computing stress (Cartesian axis) and pressure

          total   stress  (Ry/bohr**3)                   (kbar)     P=  717.33
   0.00506210   0.00000000  -0.00000000        744.66      0.00     -0.00
   0.00000000   0.00506210   0.00000000          0.00    744.66      0.00
   0.00000000  -0.00000000   0.00450476          0.00     -0.00    662.67


     Writing output data file Co.HCP.save/

     init_run     :      1.92s CPU      1.98s WALL (       1 calls)
     electrons    :     56.11s CPU     56.97s WALL (       1 calls)
     forces       :      0.86s CPU      0.86s WALL (       1 calls)
     stress       :      1.34s CPU      1.36s WALL (       1 calls)

     Called by init_run:
     wfcinit      :      1.09s CPU      1.11s WALL (       1 calls)
     potinit      :      0.05s CPU      0.05s WALL (       1 calls)
     hinit0       :      0.69s CPU      0.70s WALL (       1 calls)

     Called by electrons:
     c_bands      :     46.20s CPU     46.95s WALL (      13 calls)
     sum_band     :      8.26s CPU      8.37s WALL (      13 calls)
     v_of_rho     :      0.26s CPU      0.26s WALL (      14 calls)
     newd         :      1.37s CPU      1.39s WALL (      14 calls)
     mix_rho      :      0.07s CPU      0.07s WALL (      13 calls)

     Called by c_bands:
     init_us_2    :      0.93s CPU      0.94s WALL (    4408 calls)
     cegterg      :     44.13s CPU     44.85s WALL (    1976 calls)

     Called by sum_band:
     sum_band:bec :      0.19s CPU      0.19s WALL (    1976 calls)
     addusdens    :      2.07s CPU      2.08s WALL (      13 calls)

     Called by *egterg:
     h_psi        :     26.62s CPU     27.09s WALL (    6572 calls)
     s_psi        :      4.02s CPU      4.09s WALL (    6572 calls)
     g_psi        :      0.10s CPU      0.11s WALL (    4444 calls)
     cdiaghg      :      4.74s CPU      4.82s WALL (    6420 calls)

     Called by h_psi:
     h_psi:pot    :     26.53s CPU     27.00s WALL (    6572 calls)
     h_psi:calbec :      4.45s CPU      4.55s WALL (    6572 calls)
     vloc_psi     :     18.09s CPU     18.39s WALL (    6572 calls)
     add_vuspsi   :      3.95s CPU      4.03s WALL (    6572 calls)

     General routines
     calbec       :      6.69s CPU      6.82s WALL (    9308 calls)
     fft          :      0.18s CPU      0.18s WALL (     158 calls)
     ffts         :      0.02s CPU      0.02s WALL (      54 calls)
     fftw         :     16.77s CPU     17.07s WALL (  161524 calls)
     interpolate  :      0.05s CPU      0.05s WALL (      28 calls)

     Parallel routines

     PWSCF        :   1m 0.57s CPU   1m 1.56s WALL


   This run was terminated on:  13:52:27  19Feb2020            

=------------------------------------------------------------------------------=
   JOB DONE.
=------------------------------------------------------------------------------=
