     Message from routine get_command_line:
     unexpected argument # 2     :-input

     Program PWSCF v.6.4.1 starts on 19Feb2020 at 13:22: 0 

     This program is part of the open-source Quantum ESPRESSO suite
     for quantum simulation of materials; please cite
         "P. Giannozzi et al., J. Phys.:Condens. Matter 21 395502 (2009);
         "P. Giannozzi et al., J. Phys.:Condens. Matter 29 465901 (2017);
          URL http://www.quantum-espresso.org", 
     in publications or presentations arising from this work. More details at
     http://www.quantum-espresso.org/quote

     Parallel version (MPI), running on     1 processors

     MPI processes distributed on     1 nodes
     Waiting for input...
     Reading input from standard input

     Current dimensions of program PWSCF are:
     Max number of different atomic species (ntypx) = 10
     Max number of k-points (npk) =  40000
     Max angular momentum in pseudopotentials (lmaxx) =  3
               file Co.pz-nd-rrkjus.UPF: wavefunction(s)  4S 3D renormalized

     Subspace diagonalization in iterative solution of the eigenvalue problem:
     a serial algorithm will be used


     G-vector sticks info
     --------------------
     sticks:   dense  smooth     PW     G-vecs:    dense   smooth      PW
     Sum         223     109     37                 4523     1509     337



     bravais-lattice index     =            4
     lattice parameter (alat)  =       3.6200  a.u.
     unit-cell volume          =      67.0874 (a.u.)^3
     number of atoms/cell      =            2
     number of atomic types    =            1
     number of electrons       =        18.00
     number of Kohn-Sham states=           13
     kinetic-energy cutoff     =      30.0000  Ry
     charge density cutoff     =     250.0000  Ry
     convergence threshold     =      1.0E-08
     mixing beta               =       0.7000
     number of iterations used =            8  plain     mixing
     Exchange-correlation      =  SLA  PZ   NOGX NOGC ( 1  1  0  0 0 0)

     celldm(1)=   3.620000  celldm(2)=   0.000000  celldm(3)=   1.632993
     celldm(4)=   0.000000  celldm(5)=   0.000000  celldm(6)=   0.000000

     crystal axes: (cart. coord. in units of alat)
               a(1) = (   1.000000   0.000000   0.000000 )  
               a(2) = (  -0.500000   0.866025   0.000000 )  
               a(3) = (   0.000000   0.000000   1.632993 )  

     reciprocal axes: (cart. coord. in units 2 pi/alat)
               b(1) = (  1.000000  0.577350 -0.000000 )  
               b(2) = (  0.000000  1.154701  0.000000 )  
               b(3) = (  0.000000 -0.000000  0.612372 )  


     PseudoPot. # 1 for Co read from file:
     ./Co.pz-nd-rrkjus.UPF
     MD5 check sum: c80159f6ca3a93d3df3cfc6468bb3c3d
     Pseudo is Ultrasoft + core correction, Zval =  9.0
     Generated by new atomic code, or converted to UPF format
     Using radial grid of  961 points,  6 beta functions with: 
                l(1) =   0
                l(2) =   0
                l(3) =   1
                l(4) =   1
                l(5) =   2
                l(6) =   2
     Q(r) pseudized with 0 coefficients 


     atomic species   valence    mass     pseudopotential
        Co             9.00    58.93300     Co( 1.00)

     Starting magnetic structure 
     atomic species   magnetization
        Co           0.700

     24 Sym. Ops., with inversion, found (12 have fractional translation)



   Cartesian axes

     site n.     atom                  positions (alat units)
         1           Co  tau(   1) = (  -0.0000000   0.5773503   0.4082483  )
         2           Co  tau(   2) = (   0.5000000   0.2886751   1.2247449  )

     number of k points=    76  Marzari-Vanderbilt smearing, width (Ry)=  0.0300
                       cart. coord. in units 2pi/alat
        k(    1) = (   0.0000000   0.0000000   0.0000000), wk =   0.0011574
        k(    2) = (   0.0000000   0.0000000   0.1020621), wk =   0.0023148
        k(    3) = (   0.0000000   0.0000000   0.2041241), wk =   0.0023148
        k(    4) = (   0.0000000   0.0000000  -0.3061862), wk =   0.0011574
        k(    5) = (   0.0000000   0.0962250   0.0000000), wk =   0.0069444
        k(    6) = (   0.0000000   0.0962250   0.1020621), wk =   0.0138889
        k(    7) = (   0.0000000   0.0962250   0.2041241), wk =   0.0138889
        k(    8) = (   0.0000000   0.0962250  -0.3061862), wk =   0.0069444
        k(    9) = (   0.0000000   0.1924501   0.0000000), wk =   0.0069444
        k(   10) = (   0.0000000   0.1924501   0.1020621), wk =   0.0138889
        k(   11) = (   0.0000000   0.1924501   0.2041241), wk =   0.0138889
        k(   12) = (   0.0000000   0.1924501  -0.3061862), wk =   0.0069444
        k(   13) = (   0.0000000   0.2886751   0.0000000), wk =   0.0069444
        k(   14) = (   0.0000000   0.2886751   0.1020621), wk =   0.0138889
        k(   15) = (   0.0000000   0.2886751   0.2041241), wk =   0.0138889
        k(   16) = (   0.0000000   0.2886751  -0.3061862), wk =   0.0069444
        k(   17) = (   0.0000000   0.3849002   0.0000000), wk =   0.0069444
        k(   18) = (   0.0000000   0.3849002   0.1020621), wk =   0.0138889
        k(   19) = (   0.0000000   0.3849002   0.2041241), wk =   0.0138889
        k(   20) = (   0.0000000   0.3849002  -0.3061862), wk =   0.0069444
        k(   21) = (   0.0000000   0.4811252   0.0000000), wk =   0.0069444
        k(   22) = (   0.0000000   0.4811252   0.1020621), wk =   0.0138889
        k(   23) = (   0.0000000   0.4811252   0.2041241), wk =   0.0138889
        k(   24) = (   0.0000000   0.4811252  -0.3061862), wk =   0.0069444
        k(   25) = (   0.0000000  -0.5773503   0.0000000), wk =   0.0034722
        k(   26) = (   0.0000000  -0.5773503   0.1020621), wk =   0.0069444
        k(   27) = (   0.0000000  -0.5773503   0.2041241), wk =   0.0069444
        k(   28) = (   0.0000000  -0.5773503  -0.3061862), wk =   0.0034722
        k(   29) = (   0.0833333   0.1443376   0.0000000), wk =   0.0069444
        k(   30) = (   0.0833333   0.1443376   0.1020621), wk =   0.0138889
        k(   31) = (   0.0833333   0.1443376   0.2041241), wk =   0.0138889
        k(   32) = (   0.0833333   0.1443376  -0.3061862), wk =   0.0069444
        k(   33) = (   0.0833333   0.2405626   0.0000000), wk =   0.0138889
        k(   34) = (   0.0833333   0.2405626   0.1020621), wk =   0.0277778
        k(   35) = (   0.0833333   0.2405626   0.2041241), wk =   0.0277778
        k(   36) = (   0.0833333   0.2405626  -0.3061862), wk =   0.0138889
        k(   37) = (   0.0833333   0.3367877   0.0000000), wk =   0.0138889
        k(   38) = (   0.0833333   0.3367877   0.1020621), wk =   0.0277778
        k(   39) = (   0.0833333   0.3367877   0.2041241), wk =   0.0277778
        k(   40) = (   0.0833333   0.3367877  -0.3061862), wk =   0.0138889
        k(   41) = (   0.0833333   0.4330127   0.0000000), wk =   0.0138889
        k(   42) = (   0.0833333   0.4330127   0.1020621), wk =   0.0277778
        k(   43) = (   0.0833333   0.4330127   0.2041241), wk =   0.0277778
        k(   44) = (   0.0833333   0.4330127  -0.3061862), wk =   0.0138889
        k(   45) = (   0.0833333   0.5292377   0.0000000), wk =   0.0138889
        k(   46) = (   0.0833333   0.5292377   0.1020621), wk =   0.0277778
        k(   47) = (   0.0833333   0.5292377   0.2041241), wk =   0.0277778
        k(   48) = (   0.0833333   0.5292377  -0.3061862), wk =   0.0138889
        k(   49) = (   0.1666667   0.2886751   0.0000000), wk =   0.0069444
        k(   50) = (   0.1666667   0.2886751   0.1020621), wk =   0.0138889
        k(   51) = (   0.1666667   0.2886751   0.2041241), wk =   0.0138889
        k(   52) = (   0.1666667   0.2886751  -0.3061862), wk =   0.0069444
        k(   53) = (   0.1666667   0.3849002   0.0000000), wk =   0.0138889
        k(   54) = (   0.1666667   0.3849002   0.1020621), wk =   0.0277778
        k(   55) = (   0.1666667   0.3849002   0.2041241), wk =   0.0277778
        k(   56) = (   0.1666667   0.3849002  -0.3061862), wk =   0.0138889
        k(   57) = (   0.1666667   0.4811252   0.0000000), wk =   0.0138889
        k(   58) = (   0.1666667   0.4811252   0.1020621), wk =   0.0277778
        k(   59) = (   0.1666667   0.4811252   0.2041241), wk =   0.0277778
        k(   60) = (   0.1666667   0.4811252  -0.3061862), wk =   0.0138889
        k(   61) = (   0.1666667   0.5773503   0.0000000), wk =   0.0069444
        k(   62) = (   0.1666667   0.5773503   0.1020621), wk =   0.0138889
        k(   63) = (   0.1666667   0.5773503   0.2041241), wk =   0.0138889
        k(   64) = (   0.1666667   0.5773503  -0.3061862), wk =   0.0069444
        k(   65) = (   0.2500000   0.4330127   0.0000000), wk =   0.0069444
        k(   66) = (   0.2500000   0.4330127   0.1020621), wk =   0.0138889
        k(   67) = (   0.2500000   0.4330127   0.2041241), wk =   0.0138889
        k(   68) = (   0.2500000   0.4330127  -0.3061862), wk =   0.0069444
        k(   69) = (   0.2500000   0.5292377   0.0000000), wk =   0.0138889
        k(   70) = (   0.2500000   0.5292377   0.1020621), wk =   0.0277778
        k(   71) = (   0.2500000   0.5292377   0.2041241), wk =   0.0277778
        k(   72) = (   0.2500000   0.5292377  -0.3061862), wk =   0.0138889
        k(   73) = (   0.3333333   0.5773503   0.0000000), wk =   0.0023148
        k(   74) = (   0.3333333   0.5773503   0.1020621), wk =   0.0046296
        k(   75) = (   0.3333333   0.5773503   0.2041241), wk =   0.0046296
        k(   76) = (   0.3333333   0.5773503  -0.3061862), wk =   0.0023148

     Dense  grid:     4523 G-vectors     FFT dimensions: (  20,  20,  30)

     Smooth grid:     1509 G-vectors     FFT dimensions: (  15,  15,  24)

     Estimated max dynamical RAM per process >      24.97 MB
     Generating pointlists ...
     new r_m :   0.4125 (alat units)  1.4933 (a.u.) for type    1

     Check: negative core charge=   -0.000001

     Initial potential from superposition of free atoms

     starting charge   17.99923, renormalised to   18.00000
     Starting wfcs are   12 randomized atomic wfcs +    1 random wfcs

     total cpu time spent up to now is        1.6 secs

     Self-consistent Calculation

     iteration #  1     ecut=    30.00 Ry     beta= 0.70
     Davidson diagonalization with overlap
     ethr =  1.00E-02,  avg # of iterations =  3.6

     total cpu time spent up to now is        4.7 secs

     total energy              =    -147.14588890 Ry
     Harris-Foulkes estimate   =    -146.60816853 Ry
     estimated scf accuracy    <       0.85450146 Ry

     total magnetization       =     3.37 Bohr mag/cell
     absolute magnetization    =     3.37 Bohr mag/cell

     iteration #  2     ecut=    30.00 Ry     beta= 0.70
     Davidson diagonalization with overlap
     ethr =  4.75E-03,  avg # of iterations =  1.0

     total cpu time spent up to now is        6.6 secs

     total energy              =    -147.31358739 Ry
     Harris-Foulkes estimate   =    -147.24355441 Ry
     estimated scf accuracy    <       0.14591030 Ry

     total magnetization       =     2.53 Bohr mag/cell
     absolute magnetization    =     2.55 Bohr mag/cell

     iteration #  3     ecut=    30.00 Ry     beta= 0.70
     Davidson diagonalization with overlap
     ethr =  8.11E-04,  avg # of iterations =  1.7

     total cpu time spent up to now is        8.6 secs

     total energy              =    -147.36621861 Ry
     Harris-Foulkes estimate   =    -147.36058582 Ry
     estimated scf accuracy    <       0.06481847 Ry

     total magnetization       =     1.54 Bohr mag/cell
     absolute magnetization    =     1.61 Bohr mag/cell

     iteration #  4     ecut=    30.00 Ry     beta= 0.70
     Davidson diagonalization with overlap
     ethr =  3.60E-04,  avg # of iterations =  1.4

     total cpu time spent up to now is       10.7 secs

     total energy              =    -147.38653120 Ry
     Harris-Foulkes estimate   =    -147.38658326 Ry
     estimated scf accuracy    <       0.00833366 Ry

     total magnetization       =     0.70 Bohr mag/cell
     absolute magnetization    =     0.80 Bohr mag/cell

     iteration #  5     ecut=    30.00 Ry     beta= 0.70
     Davidson diagonalization with overlap
     ethr =  4.63E-05,  avg # of iterations =  1.1

     total cpu time spent up to now is       12.7 secs

     total energy              =    -147.38443549 Ry
     Harris-Foulkes estimate   =    -147.38668600 Ry
     estimated scf accuracy    <       0.00842248 Ry

     total magnetization       =     0.70 Bohr mag/cell
     absolute magnetization    =     0.80 Bohr mag/cell

     iteration #  6     ecut=    30.00 Ry     beta= 0.70
     Davidson diagonalization with overlap
     ethr =  4.63E-05,  avg # of iterations =  1.0

     negative rho (up, down):  1.731E-03 0.000E+00

     total cpu time spent up to now is       14.6 secs

     total energy              =    -147.38138537 Ry
     Harris-Foulkes estimate   =    -147.38460720 Ry
     estimated scf accuracy    <       0.01087600 Ry

     total magnetization       =     0.79 Bohr mag/cell
     absolute magnetization    =     0.88 Bohr mag/cell

     iteration #  7     ecut=    30.00 Ry     beta= 0.70
     Davidson diagonalization with overlap
     ethr =  4.63E-05,  avg # of iterations =  1.5

     negative rho (up, down):  8.367E-03 0.000E+00

     total cpu time spent up to now is       16.7 secs

     total energy              =    -147.39651036 Ry
     Harris-Foulkes estimate   =    -147.38257865 Ry
     estimated scf accuracy    <       0.05545195 Ry

     total magnetization       =     0.90 Bohr mag/cell
     absolute magnetization    =     1.02 Bohr mag/cell

     iteration #  8     ecut=    30.00 Ry     beta= 0.70
     Davidson diagonalization with overlap
     ethr =  4.63E-05,  avg # of iterations =  2.0

     negative rho (up, down):  1.914E-03 0.000E+00

     total cpu time spent up to now is       19.1 secs

     total energy              =    -147.39490385 Ry
     Harris-Foulkes estimate   =    -147.40148809 Ry
     estimated scf accuracy    <       0.16747122 Ry

     total magnetization       =     0.46 Bohr mag/cell
     absolute magnetization    =     0.54 Bohr mag/cell

     iteration #  9     ecut=    30.00 Ry     beta= 0.70
     Davidson diagonalization with overlap
     ethr =  4.63E-05,  avg # of iterations =  1.5

     negative rho (up, down):  4.366E-03 0.000E+00

     total cpu time spent up to now is       21.2 secs

     total energy              =    -147.39819650 Ry
     Harris-Foulkes estimate   =    -147.39718433 Ry
     estimated scf accuracy    <       0.03865451 Ry

     total magnetization       =     0.21 Bohr mag/cell
     absolute magnetization    =     0.25 Bohr mag/cell

     iteration # 10     ecut=    30.00 Ry     beta= 0.70
     Davidson diagonalization with overlap
     ethr =  4.63E-05,  avg # of iterations =  1.0

     total cpu time spent up to now is       23.1 secs

     total energy              =    -147.39183584 Ry
     Harris-Foulkes estimate   =    -147.39851648 Ry
     estimated scf accuracy    <       0.07664204 Ry

     total magnetization       =     0.30 Bohr mag/cell
     absolute magnetization    =     0.35 Bohr mag/cell

     iteration # 11     ecut=    30.00 Ry     beta= 0.70
     Davidson diagonalization with overlap
     ethr =  4.63E-05,  avg # of iterations =  1.7

     total cpu time spent up to now is       25.4 secs

     total energy              =    -147.39607643 Ry
     Harris-Foulkes estimate   =    -147.39659902 Ry
     estimated scf accuracy    <       0.00148006 Ry

     total magnetization       =    -0.02 Bohr mag/cell
     absolute magnetization    =     0.03 Bohr mag/cell

     iteration # 12     ecut=    30.00 Ry     beta= 0.70
     Davidson diagonalization with overlap
     ethr =  8.22E-06,  avg # of iterations =  1.7

     total cpu time spent up to now is       27.9 secs

     total energy              =    -147.39629184 Ry
     Harris-Foulkes estimate   =    -147.39653834 Ry
     estimated scf accuracy    <       0.00346140 Ry

     total magnetization       =     0.06 Bohr mag/cell
     absolute magnetization    =     0.07 Bohr mag/cell

     iteration # 13     ecut=    30.00 Ry     beta= 0.70
     Davidson diagonalization with overlap
     ethr =  8.22E-06,  avg # of iterations =  1.5

     total cpu time spent up to now is       30.1 secs

     total energy              =    -147.39652893 Ry
     Harris-Foulkes estimate   =    -147.39655431 Ry
     estimated scf accuracy    <       0.00024314 Ry

     total magnetization       =    -0.01 Bohr mag/cell
     absolute magnetization    =     0.01 Bohr mag/cell

     iteration # 14     ecut=    30.00 Ry     beta= 0.70
     Davidson diagonalization with overlap
     ethr =  1.35E-06,  avg # of iterations =  1.0

     total cpu time spent up to now is       32.0 secs

     total energy              =    -147.39654235 Ry
     Harris-Foulkes estimate   =    -147.39654266 Ry
     estimated scf accuracy    <       0.00000130 Ry

     total magnetization       =     0.00 Bohr mag/cell
     absolute magnetization    =     0.00 Bohr mag/cell

     iteration # 15     ecut=    30.00 Ry     beta= 0.70
     Davidson diagonalization with overlap
     ethr =  7.23E-09,  avg # of iterations =  3.0

     total cpu time spent up to now is       34.9 secs

     total energy              =    -147.39654313 Ry
     Harris-Foulkes estimate   =    -147.39654324 Ry
     estimated scf accuracy    <       0.00000034 Ry

     total magnetization       =     0.00 Bohr mag/cell
     absolute magnetization    =     0.00 Bohr mag/cell

     iteration # 16     ecut=    30.00 Ry     beta= 0.70
     Davidson diagonalization with overlap
     ethr =  1.88E-09,  avg # of iterations =  1.0

     total cpu time spent up to now is       36.7 secs

     total energy              =    -147.39654312 Ry
     Harris-Foulkes estimate   =    -147.39654315 Ry
     estimated scf accuracy    <       0.00000007 Ry

     total magnetization       =     0.00 Bohr mag/cell
     absolute magnetization    =     0.00 Bohr mag/cell

     iteration # 17     ecut=    30.00 Ry     beta= 0.70
     Davidson diagonalization with overlap
     ethr =  3.95E-10,  avg # of iterations =  1.9

     Magnetic moment per site:
     atom:    1    charge:    7.1837    magn:   -0.0000    constr:    0.0000
     atom:    2    charge:    7.1837    magn:   -0.0000    constr:    0.0000

     total cpu time spent up to now is       39.0 secs

     End of self-consistent calculation

     Number of k-points >= 100: set verbosity='high' to print the bands.

     the Fermi energy is    35.4685 ev

!    total energy              =    -147.39654314 Ry
     Harris-Foulkes estimate   =    -147.39654314 Ry
     estimated scf accuracy    <          2.3E-10 Ry

     The total energy is the sum of the following terms:

     one-electron contribution =      53.64927014 Ry
     hartree contribution      =      11.18247530 Ry
     xc contribution           =     -67.14941083 Ry
     ewald contribution        =    -145.07765073 Ry
     smearing contrib. (-TS)   =      -0.00122702 Ry

     total magnetization       =    -0.00 Bohr mag/cell
     absolute magnetization    =     0.00 Bohr mag/cell

     convergence has been achieved in  17 iterations

     Forces acting on atoms (cartesian axes, Ry/au):

     atom    1 type  1   force =     0.00000000    0.00000000    0.00000000
     atom    2 type  1   force =    -0.00000000   -0.00000000    0.00000000

     Total force =     0.000000     Total SCF correction =     0.000000


     Computing stress (Cartesian axis) and pressure

          total   stress  (Ry/bohr**3)                   (kbar)     P= 8691.40
   0.05932816  -0.00000000   0.00000000       8727.47     -0.00      0.00
  -0.00000000   0.05932816   0.00000000         -0.00   8727.47      0.00
   0.00000000   0.00000000   0.05859258          0.00      0.00   8619.26


     Writing output data file Co.HCP.save/

     init_run     :      1.26s CPU      1.33s WALL (       1 calls)
     electrons    :     35.94s CPU     37.38s WALL (       1 calls)
     forces       :      0.55s CPU      0.56s WALL (       1 calls)
     stress       :      0.92s CPU      0.92s WALL (       1 calls)

     Called by init_run:
     wfcinit      :      0.58s CPU      0.64s WALL (       1 calls)
     potinit      :      0.04s CPU      0.04s WALL (       1 calls)
     hinit0       :      0.59s CPU      0.59s WALL (       1 calls)

     Called by electrons:
     c_bands      :     28.71s CPU     29.92s WALL (      17 calls)
     sum_band     :      5.97s CPU      6.18s WALL (      17 calls)
     v_of_rho     :      0.19s CPU      0.19s WALL (      18 calls)
     newd         :      1.03s CPU      1.06s WALL (      18 calls)
     mix_rho      :      0.06s CPU      0.06s WALL (      17 calls)

     Called by c_bands:
     init_us_2    :      0.91s CPU      0.94s WALL (    5624 calls)
     cegterg      :     26.88s CPU     28.02s WALL (    2584 calls)

     Called by sum_band:
     sum_band:bec :      0.24s CPU      0.26s WALL (    2584 calls)
     addusdens    :      1.63s CPU      1.68s WALL (      17 calls)

     Called by *egterg:
     h_psi        :     14.51s CPU     15.15s WALL (    6956 calls)
     s_psi        :      2.81s CPU      2.94s WALL (    6956 calls)
     g_psi        :      0.07s CPU      0.07s WALL (    4220 calls)
     cdiaghg      :      4.01s CPU      4.17s WALL (    6804 calls)

     Called by h_psi:
     h_psi:pot    :     14.43s CPU     15.07s WALL (    6956 calls)
     h_psi:calbec :      3.09s CPU      3.23s WALL (    6956 calls)
     vloc_psi     :      8.51s CPU      8.88s WALL (    6956 calls)
     add_vuspsi   :      2.79s CPU      2.92s WALL (    6956 calls)

     General routines
     calbec       :      4.69s CPU      4.88s WALL (   10300 calls)
     fft          :      0.12s CPU      0.12s WALL (     202 calls)
     ffts         :      0.02s CPU      0.02s WALL (      70 calls)
     fftw         :      6.08s CPU      6.35s WALL (  187998 calls)
     interpolate  :      0.04s CPU      0.04s WALL (      36 calls)

     Parallel routines

     PWSCF        :     39.00s CPU     40.55s WALL


   This run was terminated on:  13:22:40  19Feb2020            

=------------------------------------------------------------------------------=
   JOB DONE.
=------------------------------------------------------------------------------=
