     Message from routine get_command_line:
     unexpected argument # 2     :-input

     Program PWSCF v.6.4.1 starts on 19Feb2020 at 14:51:11 

     This program is part of the open-source Quantum ESPRESSO suite
     for quantum simulation of materials; please cite
         "P. Giannozzi et al., J. Phys.:Condens. Matter 21 395502 (2009);
         "P. Giannozzi et al., J. Phys.:Condens. Matter 29 465901 (2017);
          URL http://www.quantum-espresso.org", 
     in publications or presentations arising from this work. More details at
     http://www.quantum-espresso.org/quote

     Parallel version (MPI), running on     1 processors

     MPI processes distributed on     1 nodes
     Waiting for input...
     Reading input from standard input

     Current dimensions of program PWSCF are:
     Max number of different atomic species (ntypx) = 10
     Max number of k-points (npk) =  40000
     Max angular momentum in pseudopotentials (lmaxx) =  3
               file Co.pz-nd-rrkjus.UPF: wavefunction(s)  4S 3D renormalized

     Subspace diagonalization in iterative solution of the eigenvalue problem:
     a serial algorithm will be used


     G-vector sticks info
     --------------------
     sticks:   dense  smooth     PW     G-vecs:    dense   smooth      PW
     Sum         475     223     85                13573     4523     893



     bravais-lattice index     =            4
     lattice parameter (alat)  =       5.2400  a.u.
     unit-cell volume          =     203.4740 (a.u.)^3
     number of atoms/cell      =            2
     number of atomic types    =            1
     number of electrons       =        18.00
     number of Kohn-Sham states=           13
     kinetic-energy cutoff     =      30.0000  Ry
     charge density cutoff     =     250.0000  Ry
     convergence threshold     =      1.0E-08
     mixing beta               =       0.7000
     number of iterations used =            8  plain     mixing
     Exchange-correlation      =  SLA  PZ   NOGX NOGC ( 1  1  0  0 0 0)

     celldm(1)=   5.240000  celldm(2)=   0.000000  celldm(3)=   1.632993
     celldm(4)=   0.000000  celldm(5)=   0.000000  celldm(6)=   0.000000

     crystal axes: (cart. coord. in units of alat)
               a(1) = (   1.000000   0.000000   0.000000 )  
               a(2) = (  -0.500000   0.866025   0.000000 )  
               a(3) = (   0.000000   0.000000   1.632993 )  

     reciprocal axes: (cart. coord. in units 2 pi/alat)
               b(1) = (  1.000000  0.577350 -0.000000 )  
               b(2) = (  0.000000  1.154701  0.000000 )  
               b(3) = (  0.000000 -0.000000  0.612372 )  


     PseudoPot. # 1 for Co read from file:
     ./Co.pz-nd-rrkjus.UPF
     MD5 check sum: c80159f6ca3a93d3df3cfc6468bb3c3d
     Pseudo is Ultrasoft + core correction, Zval =  9.0
     Generated by new atomic code, or converted to UPF format
     Using radial grid of  961 points,  6 beta functions with: 
                l(1) =   0
                l(2) =   0
                l(3) =   1
                l(4) =   1
                l(5) =   2
                l(6) =   2
     Q(r) pseudized with 0 coefficients 


     atomic species   valence    mass     pseudopotential
        Co             9.00    58.93300     Co( 1.00)

     Starting magnetic structure 
     atomic species   magnetization
        Co           0.700

     24 Sym. Ops., with inversion, found (12 have fractional translation)



   Cartesian axes

     site n.     atom                  positions (alat units)
         1           Co  tau(   1) = (  -0.0000000   0.5773503   0.4082483  )
         2           Co  tau(   2) = (   0.5000000   0.2886751   1.2247449  )

     number of k points=    76  Marzari-Vanderbilt smearing, width (Ry)=  0.0300
                       cart. coord. in units 2pi/alat
        k(    1) = (   0.0000000   0.0000000   0.0000000), wk =   0.0011574
        k(    2) = (   0.0000000   0.0000000   0.1020621), wk =   0.0023148
        k(    3) = (   0.0000000   0.0000000   0.2041241), wk =   0.0023148
        k(    4) = (   0.0000000   0.0000000  -0.3061862), wk =   0.0011574
        k(    5) = (   0.0000000   0.0962250   0.0000000), wk =   0.0069444
        k(    6) = (   0.0000000   0.0962250   0.1020621), wk =   0.0138889
        k(    7) = (   0.0000000   0.0962250   0.2041241), wk =   0.0138889
        k(    8) = (   0.0000000   0.0962250  -0.3061862), wk =   0.0069444
        k(    9) = (   0.0000000   0.1924501   0.0000000), wk =   0.0069444
        k(   10) = (   0.0000000   0.1924501   0.1020621), wk =   0.0138889
        k(   11) = (   0.0000000   0.1924501   0.2041241), wk =   0.0138889
        k(   12) = (   0.0000000   0.1924501  -0.3061862), wk =   0.0069444
        k(   13) = (   0.0000000   0.2886751   0.0000000), wk =   0.0069444
        k(   14) = (   0.0000000   0.2886751   0.1020621), wk =   0.0138889
        k(   15) = (   0.0000000   0.2886751   0.2041241), wk =   0.0138889
        k(   16) = (   0.0000000   0.2886751  -0.3061862), wk =   0.0069444
        k(   17) = (   0.0000000   0.3849002   0.0000000), wk =   0.0069444
        k(   18) = (   0.0000000   0.3849002   0.1020621), wk =   0.0138889
        k(   19) = (   0.0000000   0.3849002   0.2041241), wk =   0.0138889
        k(   20) = (   0.0000000   0.3849002  -0.3061862), wk =   0.0069444
        k(   21) = (   0.0000000   0.4811252   0.0000000), wk =   0.0069444
        k(   22) = (   0.0000000   0.4811252   0.1020621), wk =   0.0138889
        k(   23) = (   0.0000000   0.4811252   0.2041241), wk =   0.0138889
        k(   24) = (   0.0000000   0.4811252  -0.3061862), wk =   0.0069444
        k(   25) = (   0.0000000  -0.5773503   0.0000000), wk =   0.0034722
        k(   26) = (   0.0000000  -0.5773503   0.1020621), wk =   0.0069444
        k(   27) = (   0.0000000  -0.5773503   0.2041241), wk =   0.0069444
        k(   28) = (   0.0000000  -0.5773503  -0.3061862), wk =   0.0034722
        k(   29) = (   0.0833333   0.1443376   0.0000000), wk =   0.0069444
        k(   30) = (   0.0833333   0.1443376   0.1020621), wk =   0.0138889
        k(   31) = (   0.0833333   0.1443376   0.2041241), wk =   0.0138889
        k(   32) = (   0.0833333   0.1443376  -0.3061862), wk =   0.0069444
        k(   33) = (   0.0833333   0.2405626   0.0000000), wk =   0.0138889
        k(   34) = (   0.0833333   0.2405626   0.1020621), wk =   0.0277778
        k(   35) = (   0.0833333   0.2405626   0.2041241), wk =   0.0277778
        k(   36) = (   0.0833333   0.2405626  -0.3061862), wk =   0.0138889
        k(   37) = (   0.0833333   0.3367877   0.0000000), wk =   0.0138889
        k(   38) = (   0.0833333   0.3367877   0.1020621), wk =   0.0277778
        k(   39) = (   0.0833333   0.3367877   0.2041241), wk =   0.0277778
        k(   40) = (   0.0833333   0.3367877  -0.3061862), wk =   0.0138889
        k(   41) = (   0.0833333   0.4330127   0.0000000), wk =   0.0138889
        k(   42) = (   0.0833333   0.4330127   0.1020621), wk =   0.0277778
        k(   43) = (   0.0833333   0.4330127   0.2041241), wk =   0.0277778
        k(   44) = (   0.0833333   0.4330127  -0.3061862), wk =   0.0138889
        k(   45) = (   0.0833333   0.5292377   0.0000000), wk =   0.0138889
        k(   46) = (   0.0833333   0.5292377   0.1020621), wk =   0.0277778
        k(   47) = (   0.0833333   0.5292377   0.2041241), wk =   0.0277778
        k(   48) = (   0.0833333   0.5292377  -0.3061862), wk =   0.0138889
        k(   49) = (   0.1666667   0.2886751   0.0000000), wk =   0.0069444
        k(   50) = (   0.1666667   0.2886751   0.1020621), wk =   0.0138889
        k(   51) = (   0.1666667   0.2886751   0.2041241), wk =   0.0138889
        k(   52) = (   0.1666667   0.2886751  -0.3061862), wk =   0.0069444
        k(   53) = (   0.1666667   0.3849002   0.0000000), wk =   0.0138889
        k(   54) = (   0.1666667   0.3849002   0.1020621), wk =   0.0277778
        k(   55) = (   0.1666667   0.3849002   0.2041241), wk =   0.0277778
        k(   56) = (   0.1666667   0.3849002  -0.3061862), wk =   0.0138889
        k(   57) = (   0.1666667   0.4811252   0.0000000), wk =   0.0138889
        k(   58) = (   0.1666667   0.4811252   0.1020621), wk =   0.0277778
        k(   59) = (   0.1666667   0.4811252   0.2041241), wk =   0.0277778
        k(   60) = (   0.1666667   0.4811252  -0.3061862), wk =   0.0138889
        k(   61) = (   0.1666667   0.5773503   0.0000000), wk =   0.0069444
        k(   62) = (   0.1666667   0.5773503   0.1020621), wk =   0.0138889
        k(   63) = (   0.1666667   0.5773503   0.2041241), wk =   0.0138889
        k(   64) = (   0.1666667   0.5773503  -0.3061862), wk =   0.0069444
        k(   65) = (   0.2500000   0.4330127   0.0000000), wk =   0.0069444
        k(   66) = (   0.2500000   0.4330127   0.1020621), wk =   0.0138889
        k(   67) = (   0.2500000   0.4330127   0.2041241), wk =   0.0138889
        k(   68) = (   0.2500000   0.4330127  -0.3061862), wk =   0.0069444
        k(   69) = (   0.2500000   0.5292377   0.0000000), wk =   0.0138889
        k(   70) = (   0.2500000   0.5292377   0.1020621), wk =   0.0277778
        k(   71) = (   0.2500000   0.5292377   0.2041241), wk =   0.0277778
        k(   72) = (   0.2500000   0.5292377  -0.3061862), wk =   0.0138889
        k(   73) = (   0.3333333   0.5773503   0.0000000), wk =   0.0023148
        k(   74) = (   0.3333333   0.5773503   0.1020621), wk =   0.0046296
        k(   75) = (   0.3333333   0.5773503   0.2041241), wk =   0.0046296
        k(   76) = (   0.3333333   0.5773503  -0.3061862), wk =   0.0023148

     Dense  grid:    13573 G-vectors     FFT dimensions: (  27,  27,  48)

     Smooth grid:     4523 G-vectors     FFT dimensions: (  20,  20,  30)

     Estimated max dynamical RAM per process >      73.91 MB
     Generating pointlists ...
     new r_m :   0.4125 (alat units)  2.1615 (a.u.) for type    1

     Check: negative core charge=   -0.000060

     Initial potential from superposition of free atoms

     starting charge   17.99923, renormalised to   18.00000
     Starting wfcs are   12 randomized atomic wfcs +    1 random wfcs

     total cpu time spent up to now is        3.2 secs

     Self-consistent Calculation

     iteration #  1     ecut=    30.00 Ry     beta= 0.70
     Davidson diagonalization with overlap
     ethr =  1.00E-02,  avg # of iterations =  3.2

     total cpu time spent up to now is       11.1 secs

     total energy              =    -147.57464602 Ry
     Harris-Foulkes estimate   =    -148.13576369 Ry
     estimated scf accuracy    <       1.36012225 Ry

     total magnetization       =     5.71 Bohr mag/cell
     absolute magnetization    =     5.74 Bohr mag/cell

     iteration #  2     ecut=    30.00 Ry     beta= 0.70
     Davidson diagonalization with overlap
     ethr =  7.56E-03,  avg # of iterations =  2.9

     total cpu time spent up to now is       19.3 secs

     total energy              =    -147.75430666 Ry
     Harris-Foulkes estimate   =    -148.97417659 Ry
     estimated scf accuracy    <       3.44622541 Ry

     total magnetization       =     2.92 Bohr mag/cell
     absolute magnetization    =     3.07 Bohr mag/cell

     iteration #  3     ecut=    30.00 Ry     beta= 0.70
     Davidson diagonalization with overlap
     ethr =  7.56E-03,  avg # of iterations =  2.1

     total cpu time spent up to now is       26.6 secs

     total energy              =    -148.29355500 Ry
     Harris-Foulkes estimate   =    -148.26163595 Ry
     estimated scf accuracy    <       0.03484613 Ry

     total magnetization       =     4.15 Bohr mag/cell
     absolute magnetization    =     4.37 Bohr mag/cell

     iteration #  4     ecut=    30.00 Ry     beta= 0.70
     Davidson diagonalization with overlap
     ethr =  1.94E-04,  avg # of iterations =  2.4

     total cpu time spent up to now is       33.2 secs

     total energy              =    -148.30632305 Ry
     Harris-Foulkes estimate   =    -148.30583489 Ry
     estimated scf accuracy    <       0.00159866 Ry

     total magnetization       =     3.65 Bohr mag/cell
     absolute magnetization    =     4.04 Bohr mag/cell

     iteration #  5     ecut=    30.00 Ry     beta= 0.70
     Davidson diagonalization with overlap
     ethr =  8.88E-06,  avg # of iterations =  2.8

     total cpu time spent up to now is       41.1 secs

     total energy              =    -148.30708529 Ry
     Harris-Foulkes estimate   =    -148.30697180 Ry
     estimated scf accuracy    <       0.00009035 Ry

     total magnetization       =     3.59 Bohr mag/cell
     absolute magnetization    =     3.97 Bohr mag/cell

     iteration #  6     ecut=    30.00 Ry     beta= 0.70
     Davidson diagonalization with overlap
     ethr =  5.02E-07,  avg # of iterations =  2.1

     total cpu time spent up to now is       47.8 secs

     total energy              =    -148.30711531 Ry
     Harris-Foulkes estimate   =    -148.30711046 Ry
     estimated scf accuracy    <       0.00000574 Ry

     total magnetization       =     3.60 Bohr mag/cell
     absolute magnetization    =     3.97 Bohr mag/cell

     iteration #  7     ecut=    30.00 Ry     beta= 0.70
     Davidson diagonalization with overlap
     ethr =  3.19E-08,  avg # of iterations =  2.4

     total cpu time spent up to now is       55.0 secs

     total energy              =    -148.30711962 Ry
     Harris-Foulkes estimate   =    -148.30711778 Ry
     estimated scf accuracy    <       0.00000555 Ry

     total magnetization       =     3.60 Bohr mag/cell
     absolute magnetization    =     3.97 Bohr mag/cell

     iteration #  8     ecut=    30.00 Ry     beta= 0.70
     Davidson diagonalization with overlap
     ethr =  3.08E-08,  avg # of iterations =  1.7

     total cpu time spent up to now is       61.4 secs

     total energy              =    -148.30712105 Ry
     Harris-Foulkes estimate   =    -148.30712098 Ry
     estimated scf accuracy    <       0.00000016 Ry

     total magnetization       =     3.60 Bohr mag/cell
     absolute magnetization    =     3.96 Bohr mag/cell

     iteration #  9     ecut=    30.00 Ry     beta= 0.70
     Davidson diagonalization with overlap
     ethr =  8.64E-10,  avg # of iterations =  3.0

     Magnetic moment per site:
     atom:    1    charge:    7.8700    magn:    1.8799    constr:    0.0000
     atom:    2    charge:    7.8700    magn:    1.8799    constr:    0.0000

     total cpu time spent up to now is       69.5 secs

     End of self-consistent calculation

     Number of k-points >= 100: set verbosity='high' to print the bands.

     the Fermi energy is     8.8291 ev

!    total energy              =    -148.30712114 Ry
     Harris-Foulkes estimate   =    -148.30712114 Ry
     estimated scf accuracy    <          3.9E-09 Ry

     The total energy is the sum of the following terms:

     one-electron contribution =     -10.34742760 Ry
     hartree contribution      =      26.72779278 Ry
     xc contribution           =     -64.46563149 Ry
     ewald contribution        =    -100.22539994 Ry
     smearing contrib. (-TS)   =       0.00354511 Ry

     total magnetization       =     3.60 Bohr mag/cell
     absolute magnetization    =     3.96 Bohr mag/cell

     convergence has been achieved in   9 iterations

     Forces acting on atoms (cartesian axes, Ry/au):

     atom    1 type  1   force =     0.00000000    0.00000000    0.00000000
     atom    2 type  1   force =     0.00000000    0.00000000    0.00000000

     Total force =     0.000000     Total SCF correction =     0.000000


     Computing stress (Cartesian axis) and pressure

          total   stress  (Ry/bohr**3)                   (kbar)     P= -416.32
  -0.00284534   0.00000000   0.00000000       -418.56      0.00      0.00
   0.00000000  -0.00284534  -0.00000000          0.00   -418.56     -0.00
   0.00000000   0.00000000  -0.00279951          0.00      0.00   -411.82


     Writing output data file Co.HCP.save/

     init_run     :      2.91s CPU      2.97s WALL (       1 calls)
     electrons    :     64.63s CPU     66.26s WALL (       1 calls)
     forces       :      1.46s CPU      1.49s WALL (       1 calls)
     stress       :      2.37s CPU      2.46s WALL (       1 calls)

     Called by init_run:
     wfcinit      :      1.85s CPU      1.87s WALL (       1 calls)
     potinit      :      0.08s CPU      0.08s WALL (       1 calls)
     hinit0       :      0.78s CPU      0.81s WALL (       1 calls)

     Called by electrons:
     c_bands      :     52.86s CPU     53.81s WALL (       9 calls)
     sum_band     :      9.84s CPU     10.29s WALL (       9 calls)
     v_of_rho     :      0.30s CPU      0.31s WALL (      10 calls)
     newd         :      1.69s CPU      1.92s WALL (      10 calls)
     mix_rho      :      0.08s CPU      0.09s WALL (       9 calls)

     Called by c_bands:
     init_us_2    :      1.16s CPU      1.18s WALL (    3192 calls)
     cegterg      :     50.38s CPU     51.29s WALL (    1368 calls)

     Called by sum_band:
     sum_band:bec :      0.15s CPU      0.15s WALL (    1368 calls)
     addusdens    :      2.67s CPU      2.91s WALL (       9 calls)

     Called by *egterg:
     h_psi        :     31.37s CPU     31.99s WALL (    4953 calls)
     s_psi        :      5.03s CPU      5.11s WALL (    4953 calls)
     g_psi        :      0.14s CPU      0.15s WALL (    3433 calls)
     cdiaghg      :      3.53s CPU      3.60s WALL (    4801 calls)

     Called by h_psi:
     h_psi:pot    :     31.25s CPU     31.86s WALL (    4953 calls)
     h_psi:calbec :      5.57s CPU      5.67s WALL (    4953 calls)
     vloc_psi     :     20.67s CPU     21.09s WALL (    4953 calls)
     add_vuspsi   :      4.97s CPU      5.07s WALL (    4953 calls)

     General routines
     calbec       :      8.66s CPU      8.83s WALL (    7081 calls)
     fft          :      0.23s CPU      0.23s WALL (     114 calls)
     ffts         :      0.03s CPU      0.03s WALL (      38 calls)
     fftw         :     18.91s CPU     19.35s WALL (  113212 calls)
     interpolate  :      0.06s CPU      0.06s WALL (      20 calls)

     Parallel routines

     PWSCF        :   1m11.71s CPU   1m13.61s WALL


   This run was terminated on:  14:52:24  19Feb2020            

=------------------------------------------------------------------------------=
   JOB DONE.
=------------------------------------------------------------------------------=
