     Message from routine get_command_line:
     unexpected argument # 2     :-input

     Program PWSCF v.6.4.1 starts on 19Feb2020 at 13:28:17 

     This program is part of the open-source Quantum ESPRESSO suite
     for quantum simulation of materials; please cite
         "P. Giannozzi et al., J. Phys.:Condens. Matter 21 395502 (2009);
         "P. Giannozzi et al., J. Phys.:Condens. Matter 29 465901 (2017);
          URL http://www.quantum-espresso.org", 
     in publications or presentations arising from this work. More details at
     http://www.quantum-espresso.org/quote

     Parallel version (MPI), running on     1 processors

     MPI processes distributed on     1 nodes
     Waiting for input...
     Reading input from standard input

     Current dimensions of program PWSCF are:
     Max number of different atomic species (ntypx) = 10
     Max number of k-points (npk) =  40000
     Max angular momentum in pseudopotentials (lmaxx) =  3
               file Co.pz-nd-rrkjus.UPF: wavefunction(s)  4S 3D renormalized

     Subspace diagonalization in iterative solution of the eigenvalue problem:
     a serial algorithm will be used


     G-vector sticks info
     --------------------
     sticks:   dense  smooth     PW     G-vecs:    dense   smooth      PW
     Sum         253     121     43                 5359     1785     391



     bravais-lattice index     =            4
     lattice parameter (alat)  =       3.8400  a.u.
     unit-cell volume          =      80.0772 (a.u.)^3
     number of atoms/cell      =            2
     number of atomic types    =            1
     number of electrons       =        18.00
     number of Kohn-Sham states=           13
     kinetic-energy cutoff     =      30.0000  Ry
     charge density cutoff     =     250.0000  Ry
     convergence threshold     =      1.0E-08
     mixing beta               =       0.7000
     number of iterations used =            8  plain     mixing
     Exchange-correlation      =  SLA  PZ   NOGX NOGC ( 1  1  0  0 0 0)

     celldm(1)=   3.840000  celldm(2)=   0.000000  celldm(3)=   1.632993
     celldm(4)=   0.000000  celldm(5)=   0.000000  celldm(6)=   0.000000

     crystal axes: (cart. coord. in units of alat)
               a(1) = (   1.000000   0.000000   0.000000 )  
               a(2) = (  -0.500000   0.866025   0.000000 )  
               a(3) = (   0.000000   0.000000   1.632993 )  

     reciprocal axes: (cart. coord. in units 2 pi/alat)
               b(1) = (  1.000000  0.577350 -0.000000 )  
               b(2) = (  0.000000  1.154701  0.000000 )  
               b(3) = (  0.000000 -0.000000  0.612372 )  


     PseudoPot. # 1 for Co read from file:
     ./Co.pz-nd-rrkjus.UPF
     MD5 check sum: c80159f6ca3a93d3df3cfc6468bb3c3d
     Pseudo is Ultrasoft + core correction, Zval =  9.0
     Generated by new atomic code, or converted to UPF format
     Using radial grid of  961 points,  6 beta functions with: 
                l(1) =   0
                l(2) =   0
                l(3) =   1
                l(4) =   1
                l(5) =   2
                l(6) =   2
     Q(r) pseudized with 0 coefficients 


     atomic species   valence    mass     pseudopotential
        Co             9.00    58.93300     Co( 1.00)

     Starting magnetic structure 
     atomic species   magnetization
        Co           0.700

     24 Sym. Ops., with inversion, found (12 have fractional translation)



   Cartesian axes

     site n.     atom                  positions (alat units)
         1           Co  tau(   1) = (  -0.0000000   0.5773503   0.4082483  )
         2           Co  tau(   2) = (   0.5000000   0.2886751   1.2247449  )

     number of k points=    76  Marzari-Vanderbilt smearing, width (Ry)=  0.0300
                       cart. coord. in units 2pi/alat
        k(    1) = (   0.0000000   0.0000000   0.0000000), wk =   0.0011574
        k(    2) = (   0.0000000   0.0000000   0.1020621), wk =   0.0023148
        k(    3) = (   0.0000000   0.0000000   0.2041241), wk =   0.0023148
        k(    4) = (   0.0000000   0.0000000  -0.3061862), wk =   0.0011574
        k(    5) = (   0.0000000   0.0962250   0.0000000), wk =   0.0069444
        k(    6) = (   0.0000000   0.0962250   0.1020621), wk =   0.0138889
        k(    7) = (   0.0000000   0.0962250   0.2041241), wk =   0.0138889
        k(    8) = (   0.0000000   0.0962250  -0.3061862), wk =   0.0069444
        k(    9) = (   0.0000000   0.1924501   0.0000000), wk =   0.0069444
        k(   10) = (   0.0000000   0.1924501   0.1020621), wk =   0.0138889
        k(   11) = (   0.0000000   0.1924501   0.2041241), wk =   0.0138889
        k(   12) = (   0.0000000   0.1924501  -0.3061862), wk =   0.0069444
        k(   13) = (   0.0000000   0.2886751   0.0000000), wk =   0.0069444
        k(   14) = (   0.0000000   0.2886751   0.1020621), wk =   0.0138889
        k(   15) = (   0.0000000   0.2886751   0.2041241), wk =   0.0138889
        k(   16) = (   0.0000000   0.2886751  -0.3061862), wk =   0.0069444
        k(   17) = (   0.0000000   0.3849002   0.0000000), wk =   0.0069444
        k(   18) = (   0.0000000   0.3849002   0.1020621), wk =   0.0138889
        k(   19) = (   0.0000000   0.3849002   0.2041241), wk =   0.0138889
        k(   20) = (   0.0000000   0.3849002  -0.3061862), wk =   0.0069444
        k(   21) = (   0.0000000   0.4811252   0.0000000), wk =   0.0069444
        k(   22) = (   0.0000000   0.4811252   0.1020621), wk =   0.0138889
        k(   23) = (   0.0000000   0.4811252   0.2041241), wk =   0.0138889
        k(   24) = (   0.0000000   0.4811252  -0.3061862), wk =   0.0069444
        k(   25) = (   0.0000000  -0.5773503   0.0000000), wk =   0.0034722
        k(   26) = (   0.0000000  -0.5773503   0.1020621), wk =   0.0069444
        k(   27) = (   0.0000000  -0.5773503   0.2041241), wk =   0.0069444
        k(   28) = (   0.0000000  -0.5773503  -0.3061862), wk =   0.0034722
        k(   29) = (   0.0833333   0.1443376   0.0000000), wk =   0.0069444
        k(   30) = (   0.0833333   0.1443376   0.1020621), wk =   0.0138889
        k(   31) = (   0.0833333   0.1443376   0.2041241), wk =   0.0138889
        k(   32) = (   0.0833333   0.1443376  -0.3061862), wk =   0.0069444
        k(   33) = (   0.0833333   0.2405626   0.0000000), wk =   0.0138889
        k(   34) = (   0.0833333   0.2405626   0.1020621), wk =   0.0277778
        k(   35) = (   0.0833333   0.2405626   0.2041241), wk =   0.0277778
        k(   36) = (   0.0833333   0.2405626  -0.3061862), wk =   0.0138889
        k(   37) = (   0.0833333   0.3367877   0.0000000), wk =   0.0138889
        k(   38) = (   0.0833333   0.3367877   0.1020621), wk =   0.0277778
        k(   39) = (   0.0833333   0.3367877   0.2041241), wk =   0.0277778
        k(   40) = (   0.0833333   0.3367877  -0.3061862), wk =   0.0138889
        k(   41) = (   0.0833333   0.4330127   0.0000000), wk =   0.0138889
        k(   42) = (   0.0833333   0.4330127   0.1020621), wk =   0.0277778
        k(   43) = (   0.0833333   0.4330127   0.2041241), wk =   0.0277778
        k(   44) = (   0.0833333   0.4330127  -0.3061862), wk =   0.0138889
        k(   45) = (   0.0833333   0.5292377   0.0000000), wk =   0.0138889
        k(   46) = (   0.0833333   0.5292377   0.1020621), wk =   0.0277778
        k(   47) = (   0.0833333   0.5292377   0.2041241), wk =   0.0277778
        k(   48) = (   0.0833333   0.5292377  -0.3061862), wk =   0.0138889
        k(   49) = (   0.1666667   0.2886751   0.0000000), wk =   0.0069444
        k(   50) = (   0.1666667   0.2886751   0.1020621), wk =   0.0138889
        k(   51) = (   0.1666667   0.2886751   0.2041241), wk =   0.0138889
        k(   52) = (   0.1666667   0.2886751  -0.3061862), wk =   0.0069444
        k(   53) = (   0.1666667   0.3849002   0.0000000), wk =   0.0138889
        k(   54) = (   0.1666667   0.3849002   0.1020621), wk =   0.0277778
        k(   55) = (   0.1666667   0.3849002   0.2041241), wk =   0.0277778
        k(   56) = (   0.1666667   0.3849002  -0.3061862), wk =   0.0138889
        k(   57) = (   0.1666667   0.4811252   0.0000000), wk =   0.0138889
        k(   58) = (   0.1666667   0.4811252   0.1020621), wk =   0.0277778
        k(   59) = (   0.1666667   0.4811252   0.2041241), wk =   0.0277778
        k(   60) = (   0.1666667   0.4811252  -0.3061862), wk =   0.0138889
        k(   61) = (   0.1666667   0.5773503   0.0000000), wk =   0.0069444
        k(   62) = (   0.1666667   0.5773503   0.1020621), wk =   0.0138889
        k(   63) = (   0.1666667   0.5773503   0.2041241), wk =   0.0138889
        k(   64) = (   0.1666667   0.5773503  -0.3061862), wk =   0.0069444
        k(   65) = (   0.2500000   0.4330127   0.0000000), wk =   0.0069444
        k(   66) = (   0.2500000   0.4330127   0.1020621), wk =   0.0138889
        k(   67) = (   0.2500000   0.4330127   0.2041241), wk =   0.0138889
        k(   68) = (   0.2500000   0.4330127  -0.3061862), wk =   0.0069444
        k(   69) = (   0.2500000   0.5292377   0.0000000), wk =   0.0138889
        k(   70) = (   0.2500000   0.5292377   0.1020621), wk =   0.0277778
        k(   71) = (   0.2500000   0.5292377   0.2041241), wk =   0.0277778
        k(   72) = (   0.2500000   0.5292377  -0.3061862), wk =   0.0138889
        k(   73) = (   0.3333333   0.5773503   0.0000000), wk =   0.0023148
        k(   74) = (   0.3333333   0.5773503   0.1020621), wk =   0.0046296
        k(   75) = (   0.3333333   0.5773503   0.2041241), wk =   0.0046296
        k(   76) = (   0.3333333   0.5773503  -0.3061862), wk =   0.0023148

     Dense  grid:     5359 G-vectors     FFT dimensions: (  20,  20,  32)

     Smooth grid:     1785 G-vectors     FFT dimensions: (  15,  15,  24)

     Estimated max dynamical RAM per process >      29.40 MB
     Generating pointlists ...
     new r_m :   0.4125 (alat units)  1.5840 (a.u.) for type    1

     Initial potential from superposition of free atoms

     starting charge   17.99923, renormalised to   18.00000
     Starting wfcs are   12 randomized atomic wfcs +    1 random wfcs

     total cpu time spent up to now is        1.7 secs

     Self-consistent Calculation

     iteration #  1     ecut=    30.00 Ry     beta= 0.70
     Davidson diagonalization with overlap
     ethr =  1.00E-02,  avg # of iterations =  3.6

     total cpu time spent up to now is        5.1 secs

     total energy              =    -147.67068824 Ry
     Harris-Foulkes estimate   =    -147.30431552 Ry
     estimated scf accuracy    <       0.92074090 Ry

     total magnetization       =     3.63 Bohr mag/cell
     absolute magnetization    =     3.63 Bohr mag/cell

     iteration #  2     ecut=    30.00 Ry     beta= 0.70
     Davidson diagonalization with overlap
     ethr =  5.12E-03,  avg # of iterations =  2.0

     total cpu time spent up to now is        7.5 secs

     total energy              =    -147.83737015 Ry
     Harris-Foulkes estimate   =    -147.85991825 Ry
     estimated scf accuracy    <       0.21356892 Ry

     total magnetization       =     2.98 Bohr mag/cell
     absolute magnetization    =     3.03 Bohr mag/cell

     iteration #  3     ecut=    30.00 Ry     beta= 0.70
     Davidson diagonalization with overlap
     ethr =  1.19E-03,  avg # of iterations =  2.0

     total cpu time spent up to now is       10.1 secs

     total energy              =    -147.91513966 Ry
     Harris-Foulkes estimate   =    -147.90278299 Ry
     estimated scf accuracy    <       0.07925203 Ry

     total magnetization       =     2.25 Bohr mag/cell
     absolute magnetization    =     2.33 Bohr mag/cell

     iteration #  4     ecut=    30.00 Ry     beta= 0.70
     Davidson diagonalization with overlap
     ethr =  4.40E-04,  avg # of iterations =  1.4

     total cpu time spent up to now is       12.2 secs

     total energy              =    -147.93778339 Ry
     Harris-Foulkes estimate   =    -147.94133410 Ry
     estimated scf accuracy    <       0.00779989 Ry

     total magnetization       =     1.28 Bohr mag/cell
     absolute magnetization    =     1.41 Bohr mag/cell

     iteration #  5     ecut=    30.00 Ry     beta= 0.70
     Davidson diagonalization with overlap
     ethr =  4.33E-05,  avg # of iterations =  1.1

     total cpu time spent up to now is       14.3 secs

     total energy              =    -147.94138731 Ry
     Harris-Foulkes estimate   =    -147.93839569 Ry
     estimated scf accuracy    <       0.01004440 Ry

     total magnetization       =     1.42 Bohr mag/cell
     absolute magnetization    =     1.56 Bohr mag/cell

     iteration #  6     ecut=    30.00 Ry     beta= 0.70
     Davidson diagonalization with overlap
     ethr =  4.33E-05,  avg # of iterations =  1.8

     total cpu time spent up to now is       16.7 secs

     total energy              =    -147.94907793 Ry
     Harris-Foulkes estimate   =    -147.95101650 Ry
     estimated scf accuracy    <       0.00221283 Ry

     total magnetization       =     0.72 Bohr mag/cell
     absolute magnetization    =     0.78 Bohr mag/cell

     iteration #  7     ecut=    30.00 Ry     beta= 0.70
     Davidson diagonalization with overlap
     ethr =  1.23E-05,  avg # of iterations =  2.1

     total cpu time spent up to now is       19.4 secs

     total energy              =    -147.95450972 Ry
     Harris-Foulkes estimate   =    -147.95449205 Ry
     estimated scf accuracy    <       0.00026256 Ry

     total magnetization       =     0.18 Bohr mag/cell
     absolute magnetization    =     0.18 Bohr mag/cell

     iteration #  8     ecut=    30.00 Ry     beta= 0.70
     Davidson diagonalization with overlap
     ethr =  1.46E-06,  avg # of iterations =  1.3

     total cpu time spent up to now is       21.6 secs

     total energy              =    -147.95456687 Ry
     Harris-Foulkes estimate   =    -147.95451347 Ry
     estimated scf accuracy    <       0.00025230 Ry

     total magnetization       =     0.17 Bohr mag/cell
     absolute magnetization    =     0.18 Bohr mag/cell

     iteration #  9     ecut=    30.00 Ry     beta= 0.70
     Davidson diagonalization with overlap
     ethr =  1.40E-06,  avg # of iterations =  1.0

     total cpu time spent up to now is       23.6 secs

     total energy              =    -147.95466984 Ry
     Harris-Foulkes estimate   =    -147.95465283 Ry
     estimated scf accuracy    <       0.00006897 Ry

     total magnetization       =     0.11 Bohr mag/cell
     absolute magnetization    =     0.11 Bohr mag/cell

     iteration # 10     ecut=    30.00 Ry     beta= 0.70
     Davidson diagonalization with overlap
     ethr =  3.83E-07,  avg # of iterations =  1.2

     total cpu time spent up to now is       25.7 secs

     total energy              =    -147.95466134 Ry
     Harris-Foulkes estimate   =    -147.95469399 Ry
     estimated scf accuracy    <       0.00003051 Ry

     total magnetization       =     0.07 Bohr mag/cell
     absolute magnetization    =     0.08 Bohr mag/cell

     iteration # 11     ecut=    30.00 Ry     beta= 0.70
     Davidson diagonalization with overlap
     ethr =  1.70E-07,  avg # of iterations =  1.8

     total cpu time spent up to now is       28.1 secs

     total energy              =    -147.95472759 Ry
     Harris-Foulkes estimate   =    -147.95472802 Ry
     estimated scf accuracy    <       0.00000363 Ry

     total magnetization       =     0.01 Bohr mag/cell
     absolute magnetization    =     0.01 Bohr mag/cell

     iteration # 12     ecut=    30.00 Ry     beta= 0.70
     Davidson diagonalization with overlap
     ethr =  2.02E-08,  avg # of iterations =  1.9

     total cpu time spent up to now is       30.4 secs

     total energy              =    -147.95472840 Ry
     Harris-Foulkes estimate   =    -147.95472878 Ry
     estimated scf accuracy    <       0.00000031 Ry

     total magnetization       =     0.00 Bohr mag/cell
     absolute magnetization    =     0.00 Bohr mag/cell

     iteration # 13     ecut=    30.00 Ry     beta= 0.70
     Davidson diagonalization with overlap
     ethr =  1.71E-09,  avg # of iterations =  2.4

     total cpu time spent up to now is       33.1 secs

     total energy              =    -147.95472891 Ry
     Harris-Foulkes estimate   =    -147.95472892 Ry
     estimated scf accuracy    <       0.00000003 Ry

     total magnetization       =    -0.00 Bohr mag/cell
     absolute magnetization    =     0.00 Bohr mag/cell

     iteration # 14     ecut=    30.00 Ry     beta= 0.70
     Davidson diagonalization with overlap
     ethr =  1.70E-10,  avg # of iterations =  1.9

     Magnetic moment per site:
     atom:    1    charge:    7.2792    magn:    0.0000    constr:    0.0000
     atom:    2    charge:    7.2792    magn:    0.0000    constr:    0.0000

     total cpu time spent up to now is       35.4 secs

     End of self-consistent calculation

     Number of k-points >= 100: set verbosity='high' to print the bands.

     the Fermi energy is    29.1110 ev

!    total energy              =    -147.95472894 Ry
     Harris-Foulkes estimate   =    -147.95472894 Ry
     estimated scf accuracy    <          1.2E-09 Ry

     The total energy is the sum of the following terms:

     one-electron contribution =      42.09816771 Ry
     hartree contribution      =      13.03026422 Ry
     xc contribution           =     -66.31564036 Ry
     ewald contribution        =    -136.76591033 Ry
     smearing contrib. (-TS)   =      -0.00161018 Ry

     total magnetization       =     0.00 Bohr mag/cell
     absolute magnetization    =     0.00 Bohr mag/cell

     convergence has been achieved in  14 iterations

     Forces acting on atoms (cartesian axes, Ry/au):

     atom    1 type  1   force =     0.00000000    0.00000000    0.00000000
     atom    2 type  1   force =     0.00000000    0.00000000    0.00000000

     Total force =     0.000000     Total SCF correction =     0.000000


     Computing stress (Cartesian axis) and pressure

          total   stress  (Ry/bohr**3)                   (kbar)     P= 4389.91
   0.03007392  -0.00000000  -0.00000000       4424.03     -0.00     -0.00
  -0.00000000   0.03007392   0.00000000         -0.00   4424.03      0.00
   0.00000000  -0.00000000   0.02937824          0.00     -0.00   4321.69


     Writing output data file Co.HCP.save/

     init_run     :      1.37s CPU      1.42s WALL (       1 calls)
     electrons    :     32.96s CPU     33.73s WALL (       1 calls)
     forces       :      0.64s CPU      0.64s WALL (       1 calls)
     stress       :      0.99s CPU      1.00s WALL (       1 calls)

     Called by init_run:
     wfcinit      :      0.67s CPU      0.70s WALL (       1 calls)
     potinit      :      0.04s CPU      0.04s WALL (       1 calls)
     hinit0       :      0.59s CPU      0.59s WALL (       1 calls)

     Called by electrons:
     c_bands      :     26.43s CPU     27.08s WALL (      14 calls)
     sum_band     :      5.45s CPU      5.55s WALL (      14 calls)
     v_of_rho     :      0.15s CPU      0.15s WALL (      15 calls)
     newd         :      0.96s CPU      0.98s WALL (      15 calls)
     mix_rho      :      0.03s CPU      0.03s WALL (      14 calls)

     Called by c_bands:
     init_us_2    :      0.88s CPU      0.90s WALL (    4712 calls)
     cegterg      :     24.79s CPU     25.41s WALL (    2128 calls)

     Called by sum_band:
     sum_band:bec :      0.19s CPU      0.20s WALL (    2128 calls)
     addusdens    :      1.57s CPU      1.59s WALL (      14 calls)

     Called by *egterg:
     h_psi        :     13.17s CPU     13.53s WALL (    6134 calls)
     s_psi        :      2.72s CPU      2.80s WALL (    6134 calls)
     g_psi        :      0.06s CPU      0.07s WALL (    3854 calls)
     cdiaghg      :      3.49s CPU      3.56s WALL (    5982 calls)

     Called by h_psi:
     h_psi:pot    :     13.11s CPU     13.46s WALL (    6134 calls)
     h_psi:calbec :      3.02s CPU      3.11s WALL (    6134 calls)
     vloc_psi     :      7.32s CPU      7.50s WALL (    6134 calls)
     add_vuspsi   :      2.74s CPU      2.81s WALL (    6134 calls)

     General routines
     calbec       :      4.68s CPU      4.81s WALL (    9022 calls)
     fft          :      0.02s CPU      0.02s WALL (     169 calls)
     ffts         :      0.02s CPU      0.02s WALL (      58 calls)
     fftw         :      5.36s CPU      5.50s WALL (  157400 calls)
     interpolate  :      0.02s CPU      0.02s WALL (      30 calls)

     Parallel routines

     PWSCF        :     36.28s CPU     37.14s WALL


   This run was terminated on:  13:28:54  19Feb2020            

=------------------------------------------------------------------------------=
   JOB DONE.
=------------------------------------------------------------------------------=
